unknown system                          
           1
     7.958340    0.000000    0.000000
     0.000000    7.958340    0.000000
     0.000000    0.000000    7.955881
   Ba   Sr   Ti   O 
     3     5     8    24
Direct configuration=     1
   0.00000000  0.50000000  0.00000000
   0.00000000  0.00000000  0.00000000
   0.50000000  0.00000000  0.00000000
   0.00000000  0.50000000  0.50000000
   0.00000000  0.00000000  0.50000000
   0.50000000  0.50000000  0.50000000
   0.50000000  0.00000000  0.50000000
   0.50000000  0.50000000  0.00000000
   0.25135700  0.74864300  0.74597000
   0.25135700  0.25135700  0.74597000
   0.25135700  0.74864300  0.25403000
   0.25135700  0.25135700  0.25403000
   0.74864300  0.74864300  0.74597000
   0.74864300  0.25135700  0.74597000
   0.74864300  0.74864300  0.25403000
   0.74864300  0.25135700  0.25403000
   0.00000000  0.74887800  0.74203200
   0.00000000  0.25112200  0.74203200
   0.00000000  0.74887800  0.25796800
   0.00000000  0.25112200  0.25796800
   0.50000000  0.74678900  0.74433900
   0.50000000  0.25321100  0.74433900
   0.50000000  0.74678900  0.25566100
   0.50000000  0.25321100  0.25566100
   0.25126100  0.74873900  0.50000000
   0.25126100  0.25126100  0.50000000
   0.25360900  0.74639100  0.00000000
   0.25360900  0.25360900  0.00000000
   0.74873900  0.74873900  0.50000000
   0.74873900  0.25126100  0.50000000
   0.74639100  0.74639100  0.00000000
   0.74639100  0.25360900  0.00000000
   0.25321100  0.50000000  0.74433900
   0.25112200  0.00000000  0.74203200
   0.25321100  0.50000000  0.25566100
   0.25112200  0.00000000  0.25796800
   0.74678900  0.50000000  0.74433900
   0.74887800  0.00000000  0.74203200
   0.74678900  0.50000000  0.25566100
   0.74887800  0.00000000  0.25796800
Direct configuration=     2
  -0.00068820  0.50007474  0.00191277
  -0.00039437 -0.00060141 -0.00098506
   0.50020162  0.00101314  0.00063322
   0.00066350  0.50001625  0.49850020
  -0.00135855 -0.00029083  0.50012244
   0.50137905  0.50045803  0.50085888
   0.50062908  0.00042363  0.50191014
   0.50169511  0.50056263  0.00065172
   0.25007613  0.74864128  0.74703826
   0.25157259  0.25185911  0.74984650
   0.25379154  0.75055774  0.25534727
   0.25384042  0.25154117  0.25647090
   0.74851132  0.74867614  0.74667279
   0.74971153  0.25537029  0.74726745
   0.74656347  0.74746638  0.25081037
   0.74787197  0.25158856  0.25637161
  -0.00212649  0.75065610  0.73896673
   0.00150191  0.25262140  0.74400821
   0.00053582  0.74705012  0.25666346
  -0.00017734  0.25355104  0.25404434
   0.50126762  0.75148891  0.74348895
   0.49529774  0.24933085  0.74397634
   0.50288416  0.74288535  0.25778790
   0.49790136  0.25632386  0.25236478
   0.24882697  0.75163022  0.49975562
   0.24800487  0.25113237  0.49903833
   0.25456148  0.74376396  0.00344625
   0.24885746  0.25215964 -0.00373568
   0.75047159  0.74683135  0.49975338
   0.74986569  0.24772631  0.49750875
   0.74657569  0.74426718 -0.00000859
   0.74916534  0.25784805 -0.00149315
   0.25519260  0.49833252  0.74929958
   0.25105797 -0.00035347  0.74719460
   0.24992603  0.50379252  0.25554744
   0.24904200 -0.00204587  0.25599859
   0.74482899  0.50036056  0.74410921
   0.75001511  0.00234602  0.74366941
   0.74436865  0.49917063  0.25633354
   0.74349142 -0.00140144  0.25993437
Direct configuration=     3
  -0.00125769  0.50040387  0.00388774
  -0.00076701 -0.00120002 -0.00162897
   0.50044783  0.00202425  0.00140688
   0.00128138  0.50016847  0.49653988
  -0.00262077 -0.00047700  0.50001899
   0.50311468  0.50095301  0.50174539
   0.50112021  0.00082439  0.50393998
   0.50340990  0.50094487  0.00152880
   0.24883555  0.74851197  0.74799497
   0.25201357  0.25183667  0.75343891
   0.25616723  0.75297596  0.25624317
   0.25668246  0.25164141  0.25882353
   0.74798536  0.74881765  0.74701656
   0.75090403  0.25925899  0.74904643
   0.74495206  0.74633356  0.24796200
   0.74701031  0.25184766  0.25875034
  -0.00407116  0.75252834  0.73614443
   0.00288016  0.25418291  0.74609906
   0.00052231  0.74500101  0.25503101
  -0.00074742  0.25584135  0.25089939
   0.50276118  0.75581836  0.74259129
   0.49170849  0.24575214  0.74334828
   0.50517146  0.73999183  0.25983640
   0.49606556  0.25934990  0.24926455
   0.24672236  0.75486076  0.49926705
   0.24389090  0.25155418  0.49790680
   0.25579463  0.74085749  0.00671662
   0.24382359  0.25092875 -0.00729548
   0.75165666  0.74491417  0.49952276
   0.75048951  0.24406727  0.49464319
   0.74607386  0.74246588  0.00021249
   0.75259610  0.26129952 -0.00277674
   0.25591775  0.49690024  0.75389158
   0.25007804 -0.00063077  0.75129983
   0.24650639  0.50714389  0.25498569
   0.24719656 -0.00427577  0.25422622
   0.74313424  0.50060352  0.74437360
   0.75138170  0.00480857  0.74530237
   0.74198700  0.49831752  0.25748123
   0.73795955 -0.00262100  0.25987263
Direct configuration=     4
  -0.00185255  0.50072564  0.00597039
  -0.00115124 -0.00175595 -0.00220134
   0.50049532  0.00295916  0.00247548
   0.00197948  0.50034232  0.49443883
  -0.00402004 -0.00146877  0.49985379
   0.50471880  0.50158132  0.50280122
   0.50156694  0.00105407  0.50605650
   0.50518266  0.50150617  0.00225322
   0.24787658  0.74811950  0.74870675
   0.25245665  0.25140808  0.75725683
   0.25874519  0.75530439  0.25671293
   0.25894694  0.25236885  0.26143896
   0.74769623  0.74924684  0.74738179
   0.75271179  0.26312017  0.75143222
   0.74350889  0.74537102  0.24540325
   0.74649330  0.25169636  0.26105511
  -0.00554489  0.75337697  0.73378908
   0.00356605  0.25560116  0.74752741
   0.00027883  0.74288736  0.25338640
  -0.00101247  0.25811123  0.24700208
   0.50324467  0.75918549  0.74173168
   0.48881818  0.24263027  0.74235089
   0.50706759  0.73726685  0.26219199
   0.49359936  0.26224597  0.24675782
   0.24505011  0.75836601  0.49969126
   0.24015712  0.25178807  0.49647974
   0.25631942  0.73726227  0.00967134
   0.23863425  0.24963026 -0.01076588
   0.75263549  0.74278986  0.49919562
   0.75050704  0.24129976  0.49236289
   0.74614670  0.74070752  0.00013062
   0.75466658  0.26440372 -0.00492039
   0.25662429  0.49581616  0.75796144
   0.24943002 -0.00205087  0.75531034
   0.24263334  0.50971598  0.25449056
   0.24578288 -0.00612521  0.25145352
   0.74180502  0.50023879  0.74456964
   0.75229858  0.00744237  0.74735103
   0.73970662  0.49735710  0.25812878
   0.73304733 -0.00362100  0.26000342
Direct configuration=     5
  -0.00259708  0.50131495  0.00779719
  -0.00159637 -0.00244150 -0.00281731
   0.50059707  0.00380946  0.00407336
   0.00295705  0.50037461  0.49261746
  -0.00527005 -0.00252743  0.49968613
   0.50613553  0.50211798  0.50408939
   0.50196397  0.00103085  0.50826010
   0.50680449  0.50198383  0.00274791
   0.24661897  0.74769003  0.74879562
   0.25337394  0.25107979  0.76142859
   0.26110389  0.75801157  0.25644319
   0.26105941  0.25276974  0.26428234
   0.74708768  0.74922273  0.74765290
   0.75494730  0.26678211  0.75442740
   0.74272744  0.74470809  0.24334096
   0.74623090  0.25163879  0.26361378
  -0.00692809  0.75420347  0.73255000
   0.00291370  0.25721997  0.74733740
  -0.00017703  0.74158454  0.25207802
  -0.00199566  0.26018079  0.24307727
   0.50280290  0.76297132  0.74104468
   0.48700227  0.23952392  0.74218898
   0.50833756  0.73414859  0.26483442
   0.49144846  0.26454497  0.24365854
   0.24479909  0.76247583  0.50070827
   0.23611787  0.25209661  0.49438705
   0.25629289  0.73366014  0.01112994
   0.23322927  0.24845688 -0.01357167
   0.75314373  0.74012356  0.49960245
   0.75075180  0.23877167  0.49045676
   0.74515929  0.73804434  0.00020997
   0.75570682  0.26730765 -0.00750975
   0.25678927  0.49515672  0.76134974
   0.24883666 -0.00333376  0.75873228
   0.23900400  0.51093835  0.25382922
   0.24473435 -0.00752085  0.24847556
   0.74086128  0.50019210  0.74424104
   0.75243712  0.01065815  0.74882032
   0.73670740  0.49599812  0.25844448
   0.72813634 -0.00409522  0.26029131
Direct configuration=     6
  -0.00338246  0.50198993  0.00961307
  -0.00207202 -0.00305180 -0.00350352
   0.50073353  0.00479314  0.00554810
   0.00396760  0.50029557  0.49095755
  -0.00650701 -0.00387084  0.49968469
   0.50775707  0.50255252  0.50538034
   0.50252786  0.00124777  0.51062419
   0.50817286  0.50231938  0.00289731
   0.24593859  0.74785538  0.74904835
   0.25451398  0.25061728  0.76548489
   0.26310354  0.76051914  0.25631216
   0.26229235  0.25323313  0.26721706
   0.74672709  0.74944435  0.74777649
   0.75728806  0.27002535  0.75824263
   0.74283928  0.74437496  0.24097299
   0.74713803  0.25159164  0.26640330
  -0.00748209  0.75435747  0.73219620
  -0.00008156  0.25860826  0.74630904
  -0.00091393  0.74078594  0.25081303
  -0.00367127  0.26165964  0.23895010
   0.50202033  0.76712462  0.74008959
   0.48643892  0.23689800  0.74117131
   0.50939049  0.73107568  0.26763439
   0.48874826  0.26732744  0.23971477
   0.24465118  0.76641682  0.50336448
   0.23212671  0.25191516  0.49127236
   0.25599703  0.73066755  0.01321990
   0.22859174  0.24696294 -0.01521478
   0.75392413  0.73778760  0.50000963
   0.75067586  0.23644458  0.48992135
   0.74486748  0.73508259  0.00033005
   0.75634722  0.27066848 -0.01029014
   0.25674173  0.49458344  0.76514602
   0.24787751 -0.00490485  0.76154280
   0.23597459  0.51128908  0.25216854
   0.24384317 -0.00881096  0.24509072
   0.73979766  0.50056141  0.74349306
   0.75212235  0.01324355  0.75008083
   0.73354297  0.49467210  0.25893022
   0.72284999 -0.00436614  0.26119933
Direct configuration=     7
  -0.00404979  0.50255304  0.01146597
  -0.00253464 -0.00355277 -0.00426708
   0.50091408  0.00578335  0.00679947
   0.00463501  0.49997921  0.48921447
  -0.00802956 -0.00510144  0.49971551
   0.50914895  0.50304231  0.50672194
   0.50318647  0.00144935  0.51292868
   0.50941735  0.50285906  0.00289469
   0.24509696  0.74795728  0.74932872
   0.25519842  0.25005397  0.76951909
   0.26449910  0.76267678  0.25563232
   0.26291507  0.25356633  0.27003256
   0.74627034  0.75013164  0.74728765
   0.76019063  0.27271615  0.76231530
   0.74352543  0.74380417  0.23858750
   0.74828088  0.25171459  0.26883668
  -0.00733677  0.75377472  0.73227113
  -0.00427304  0.26004482  0.74451969
  -0.00262452  0.74092274  0.24948082
  -0.00561114  0.26248681  0.23487784
   0.50123797  0.77061478  0.73916126
   0.48674701  0.23376801  0.73956411
   0.50913215  0.72778810  0.27018154
   0.48624675  0.26885653  0.23559841
   0.24513035  0.77004013  0.50626107
   0.22784599  0.25245261  0.48868947
   0.25597189  0.72781069  0.01422713
   0.22438615  0.24508375 -0.01502910
   0.75516861  0.73583520  0.50097166
   0.74945291  0.23395241  0.48964701
   0.74529993  0.73237162  0.00040373
   0.75611821  0.27366079 -0.01306653
   0.25698729  0.49543068  0.76876516
   0.24783847 -0.00760819  0.76427263
   0.23399790  0.51123574  0.25123965
   0.24308391 -0.00918413  0.24136186
   0.73867058  0.50085148  0.74243180
   0.75099217  0.01505050  0.75160509
   0.73017076  0.49301616  0.26039656
   0.71712541 -0.00500181  0.26171941
Direct configuration=     8
  -0.00468969  0.50313965  0.01329235
  -0.00293254 -0.00387858 -0.00505306
   0.50109109  0.00662294  0.00790369
   0.00540528  0.49955559  0.48707653
  -0.00948968 -0.00615387  0.49943357
   0.51067931  0.50347661  0.50802618
   0.50390264  0.00162125  0.51522387
   0.51053004  0.50344920  0.00332360
   0.24391744  0.74816430  0.74951924
   0.25640615  0.24989618  0.77316723
   0.26522072  0.76462975  0.25520626
   0.26344566  0.25406508  0.27266007
   0.74584287  0.75117586  0.74600398
   0.76384115  0.27498315  0.76665259
   0.74502403  0.74373221  0.23628071
   0.74980110  0.25187888  0.27132781
  -0.00602992  0.75337855  0.73315128
  -0.00907662  0.26177490  0.74202933
  -0.00585909  0.74177360  0.24881169
  -0.00855971  0.26277313  0.23116194
   0.50069693  0.77385293  0.73848353
   0.48763084  0.23103773  0.73740545
   0.50679195  0.72394355  0.27224709
   0.48507242  0.27092689  0.23162166
   0.24494242  0.77402167  0.50885685
   0.22359296  0.25230136  0.48658932
   0.25599380  0.72563696  0.01334983
   0.22016001  0.24305595 -0.01186601
   0.75628952  0.73336848  0.50222898
   0.74850482  0.23162551  0.48962602
   0.74529169  0.72889656  0.00009856
   0.75519032  0.27587448 -0.01510277
   0.25789507  0.49723213  0.77203854
   0.24703396 -0.01086617  0.76657195
   0.23175289  0.51059611  0.25108279
   0.24321443 -0.00843800  0.23791917
   0.73589566  0.50215136  0.74057181
   0.74994263  0.01588139  0.75242863
   0.72613646  0.49143218  0.26188414
   0.71195370 -0.00643188  0.26223417
Direct configuration=     9
  -0.00531018  0.50359073  0.01526105
  -0.00382427 -0.00445635 -0.00589091
   0.50172297  0.00764118  0.00875253
   0.00616194  0.49920377  0.48479173
  -0.01093562 -0.00702787  0.49903319
   0.51184302  0.50387641  0.50919720
   0.50451278  0.00185964  0.51742721
   0.51178381  0.50405595  0.00367625
   0.24269625  0.74832408  0.75015539
   0.25727751  0.25034541  0.77626515
   0.26595900  0.76636991  0.25470173
   0.26356762  0.25503368  0.27480651
   0.74587074  0.75234338  0.74385098
   0.76785362  0.27690790  0.77031953
   0.74729883  0.74361433  0.23427850
   0.75186901  0.25165693  0.27350247
  -0.00463135  0.75284685  0.73445588
  -0.01345799  0.26401101  0.73857651
  -0.01005101  0.74316817  0.24954102
  -0.01244843  0.26243084  0.22775431
   0.50028200  0.77696975  0.73860238
   0.48868140  0.22897675  0.73471517
   0.50422395  0.72081100  0.27357534
   0.48491412  0.27295432  0.22742675
   0.24425114  0.77669116  0.51059855
   0.21968070  0.25147872  0.48628068
   0.25667645  0.72427091  0.01249224
   0.21637970  0.24061587 -0.00696858
   0.75774846  0.73062086  0.50460959
   0.74757643  0.22973655  0.49059996
   0.74576428  0.72628165 -0.00085220
   0.75333602  0.27778647 -0.01574650
   0.25895192  0.49878028  0.77476277
   0.24587442 -0.01409065  0.76919673
   0.22991961  0.50916848  0.25157602
   0.24265296 -0.00586537  0.23483703
   0.73252385  0.50469759  0.73822094
   0.74854952  0.01599895  0.75349320
   0.72173221  0.48983935  0.26332852
   0.70738486 -0.00767244  0.26246508
Direct configuration=    10
  -0.00556684  0.50405159  0.01690912
  -0.00469717 -0.00485704 -0.00656836
   0.50226147  0.00847158  0.00945645
   0.00684540  0.49914209  0.48274042
  -0.01222566 -0.00812724  0.49866331
   0.51335101  0.50436500  0.51027872
   0.50484913  0.00228226  0.51980560
   0.51297370  0.50452131  0.00396051
   0.24126399  0.74845976  0.75106659
   0.25796536  0.25044765  0.77861800
   0.26685628  0.76726462  0.25440947
   0.26371361  0.25614517  0.27599348
   0.74608564  0.75365596  0.74123122
   0.77126504  0.27867657  0.77344899
   0.74982404  0.74403678  0.23267105
   0.75433353  0.25192563  0.27567529
  -0.00344781  0.75178825  0.73638860
  -0.01615884  0.26661934  0.73473804
  -0.01538234  0.74558915  0.25046203
  -0.01657165  0.26236749  0.22547556
   0.49948678  0.78016746  0.73778506
   0.48870256  0.22813007  0.73178995
   0.50072756  0.71837289  0.27477597
   0.48536654  0.27441053  0.22323250
   0.24385643  0.77979650  0.51132328
   0.21609725  0.24989971  0.48844449
   0.25714869  0.72315029  0.01055877
   0.21243714  0.23713575 -0.00031860
   0.75865247  0.72757041  0.50811005
   0.74618630  0.22856940  0.49242018
   0.74583827  0.72411022 -0.00208432
   0.75165271  0.27851160 -0.01340572
   0.26070594  0.49994785  0.77686937
   0.24347921 -0.01695179  0.77231035
   0.22851628  0.50738856  0.25308461
   0.24223359 -0.00323816  0.23235747
   0.72860626  0.50810142  0.73604778
   0.74676899  0.01557832  0.75356997
   0.71696342  0.48809097  0.26526786
   0.70364310 -0.00933030  0.26231975
Direct configuration=    11
  -0.00580873  0.50459338  0.01824674
  -0.00538253 -0.00515935 -0.00731672
   0.50290785  0.00921100  0.00978704
   0.00758979  0.49904121  0.48072635
  -0.01377082 -0.00924722  0.49843492
   0.51451280  0.50475276  0.51135587
   0.50497834  0.00263974  0.52245950
   0.51374391  0.50475734  0.00436697
   0.23998512  0.74866779  0.75183024
   0.25918933  0.25110271  0.78101492
   0.26809182  0.76745569  0.25387445
   0.26351439  0.25787064  0.27651997
   0.74619723  0.75510250  0.73850205
   0.77401622  0.28006965  0.77586194
   0.75165781  0.74515647  0.23144481
   0.75659091  0.25234166  0.27720796
  -0.00285019  0.75093244  0.73891714
  -0.01655003  0.26893485  0.73046895
  -0.02113310  0.74811948  0.25218679
  -0.02113978  0.26117238  0.22323846
   0.49821159  0.78278291  0.73709350
   0.48840141  0.22813213  0.72914954
   0.49650355  0.71609314  0.27625549
   0.48590658  0.27510536  0.21902158
   0.24404071  0.78213795  0.51106385
   0.21292074  0.24731923  0.49238806
   0.25800540  0.72193247  0.00920364
   0.20842786  0.23423407  0.00575440
   0.75936821  0.72518346  0.51101433
   0.74532733  0.22782409  0.49609896
   0.74523205  0.72178800 -0.00306325
   0.74904015  0.27929504 -0.00836768
   0.26258572  0.50051476  0.77829530
   0.24101951 -0.01841562  0.77571964
   0.22742629  0.50533917  0.25499508
   0.24149943 -0.00059436  0.23047596
   0.72412438  0.51136453  0.73428823
   0.74525385  0.01417794  0.75290843
   0.71206165  0.48732237  0.26730403
   0.70011954 -0.01106244  0.26220091
Direct configuration=    12
  -0.00599643  0.50523303  0.01892227
  -0.00615889 -0.00557534 -0.00805363
   0.50341537  0.01017674  0.01004126
   0.00852206  0.49898644  0.47856474
  -0.01534039 -0.01016994  0.49826947
   0.51558347  0.50511585  0.51269257
   0.50489428  0.00255463  0.52487222
   0.51444431  0.50509636  0.00476938
   0.23895956  0.74878199  0.75220729
   0.26016351  0.25182361  0.78314537
   0.26965827  0.76689760  0.25317277
   0.26289547  0.26014057  0.27615670
   0.74617733  0.75670912  0.73551607
   0.77643005  0.28145870  0.77724023
   0.75335182  0.74711328  0.23060398
   0.75871806  0.25298288  0.27769895
  -0.00130833  0.75062591  0.74045896
  -0.01367813  0.27176431  0.72654279
  -0.02597222  0.74996004  0.25460613
  -0.02508478  0.25919699  0.22247366
   0.49702013  0.78469917  0.73708467
   0.48812453  0.22809953  0.72661352
   0.49232448  0.71474787  0.27783917
   0.48657247  0.27465232  0.21568894
   0.24451421  0.78358917  0.51045522
   0.20999633  0.24368782  0.49768309
   0.25886864  0.72144758  0.00809870
   0.20539288  0.23146971  0.01107374
   0.76077369  0.72298990  0.51340900
   0.74388541  0.22726464  0.50140309
   0.74324456  0.71929498 -0.00395628
   0.74571887  0.27905032 -0.00213078
   0.26365598  0.49988132  0.77865002
   0.23853214 -0.01791862  0.77913189
   0.22611968  0.50321864  0.25753553
   0.24150297  0.00187147  0.22946517
   0.71966473  0.51387441  0.73284205
   0.74428343  0.01157741  0.75201111
   0.70751853  0.48634527  0.26970839
   0.69705204 -0.01254556  0.26197739
Direct configuration=    13
  -0.00621588  0.50563404  0.01942086
  -0.00708317 -0.00597868 -0.00861179
   0.50391431  0.01122238  0.01013419
   0.00941312  0.49896382  0.47638134
  -0.01664136 -0.01070408  0.49795458
   0.51638476  0.50557675  0.51423828
   0.50468539  0.00221569  0.52709154
   0.51496388  0.50512648  0.00514812
   0.23827904  0.74900873  0.75261744
   0.26141913  0.25258581  0.78470832
   0.27126209  0.76641246  0.25239637
   0.26207378  0.26268918  0.27541198
   0.74611090  0.75868608  0.73205083
   0.77776183  0.28237547  0.77783570
   0.75468696  0.74966319  0.23017931
   0.76011425  0.25397947  0.27788247
  -0.00041500  0.74961717  0.74207150
  -0.00829664  0.27433572  0.72219637
  -0.03001423  0.75216324  0.25684806
  -0.02795983  0.25732950  0.22285505
   0.49648979  0.78584043  0.73745025
   0.48738452  0.22851126  0.72533802
   0.48774646  0.71432080  0.27888599
   0.48660571  0.27283438  0.21351534
   0.24430335  0.78354027  0.50807322
   0.20799298  0.23969074  0.50378188
   0.26005572  0.72205331  0.00781716
   0.20267791  0.22946590  0.01425090
   0.76257597  0.72142124  0.51456042
   0.74257214  0.22720839  0.50635895
   0.74096371  0.71652076 -0.00430473
   0.74255966  0.27830289  0.00468950
   0.26487542  0.49864839  0.77801413
   0.23568293 -0.01614962  0.78280079
   0.22495906  0.50018501  0.26081054
   0.24096784  0.00363461  0.22932974
   0.71575517  0.51501376  0.73212700
   0.74316045  0.00903176  0.75114058
   0.70453857  0.48597023  0.27247413
   0.69413418 -0.01402321  0.26131394
Direct configuration=    14
  -0.00620610  0.50607281  0.01994377
  -0.00793881 -0.00613993 -0.00915564
   0.50443589  0.01189227  0.01030560
   0.00988138  0.49942547  0.47415037
  -0.01789473 -0.01114783  0.49757386
   0.51685966  0.50610621  0.51560908
   0.50432307  0.00213318  0.52914484
   0.51529970  0.50504200  0.00557987
   0.23809640  0.74987752  0.75321519
   0.26249126  0.25359698  0.78610185
   0.27233071  0.76531658  0.25156382
   0.26089087  0.26525116  0.27453739
   0.74583954  0.76088216  0.72993480
   0.77851809  0.28293835  0.77749194
   0.75478366  0.75253732  0.23028099
   0.76078559  0.25523678  0.27804982
   0.00038903  0.74779598  0.74409683
  -0.00171804  0.27636503  0.71874875
  -0.03256811  0.75406005  0.25946999
  -0.02894698  0.25438116  0.22483132
   0.49668982  0.78618593  0.73720266
   0.48605767  0.22895348  0.72538591
   0.48366705  0.71449461  0.27963981
   0.48603344  0.27031028  0.21180074
   0.24356868  0.78312499  0.50517161
   0.20743326  0.23528201  0.50975735
   0.26118769  0.72264541  0.00804970
   0.20077810  0.22807695  0.01581304
   0.76384259  0.71955017  0.51312313
   0.74173277  0.22720072  0.51110417
   0.73900894  0.71419255 -0.00340812
   0.73904086  0.27669153  0.01161777
   0.26602445  0.49702995  0.77683547
   0.23344121 -0.01327163  0.78573063
   0.22231887  0.49735336  0.26398121
   0.23897572  0.00388536  0.23036108
   0.71153908  0.51480828  0.73252013
   0.74270694  0.00527377  0.75044835
   0.70268027  0.48569404  0.27561448
   0.69281076 -0.01628188  0.26143560
Direct configuration=    15
  -0.00584217  0.50615505  0.02014023
  -0.00898971 -0.00630056 -0.00978355
   0.50487171  0.01244579  0.01039463
   0.01021352  0.49993276  0.47239348
  -0.01935584 -0.01113354  0.49727881
   0.51703945  0.50687227  0.51716112
   0.50387646  0.00191932  0.53129205
   0.51556903  0.50484082  0.00606176
   0.23767871  0.75089096  0.75308483
   0.26364563  0.25436430  0.78710589
   0.27303966  0.76474790  0.25055642
   0.25994366  0.26739928  0.27347878
   0.74551563  0.76343282  0.72793279
   0.77910967  0.28280849  0.77635936
   0.75383458  0.75588950  0.23029507
   0.76016620  0.25658264  0.27817968
   0.00158691  0.74534985  0.74529756
   0.00464868  0.27843352  0.71608973
  -0.03251657  0.75643979  0.26289804
  -0.02729496  0.25068281  0.22790946
   0.49757369  0.78541733  0.73797024
   0.48408103  0.22864062  0.72629852
   0.48091664  0.71459090  0.27973855
   0.48463067  0.26627252  0.21110965
   0.24252409  0.78189000  0.50309264
   0.20824397  0.23079986  0.51445751
   0.26264710  0.72360376  0.00860309
   0.19979947  0.22800506  0.01713227
   0.76486423  0.71872332  0.51015579
   0.74110361  0.22650834  0.51549535
   0.73708684  0.71204737 -0.00154055
   0.73612466  0.27405020  0.01624586
   0.26747811  0.49500060  0.77581961
   0.23116345 -0.00949897  0.78826790
   0.21971541  0.49496651  0.26611149
   0.23758076  0.00325183  0.23167213
   0.70743037  0.51331757  0.73348424
   0.74289847  0.00206056  0.74893669
   0.70271460  0.48638776  0.27848417
   0.69289426 -0.01886649  0.26189764
Direct configuration=    16
  -0.00552416  0.50638082  0.02040362
  -0.01024943 -0.00632762 -0.01024113
   0.50525649  0.01309111  0.01048328
   0.01086735  0.50009822  0.47087503
  -0.02067676 -0.01111252  0.49718014
   0.51685036  0.50748735  0.51838021
   0.50346883  0.00170996  0.53359377
   0.51572011  0.50452150  0.00679159
   0.23798603  0.75153680  0.75243658
   0.26410903  0.25569093  0.78732621
   0.27309802  0.76461622  0.24983442
   0.25919841  0.26896375  0.27283488
   0.74519197  0.76573301  0.72629777
   0.77968997  0.28243995  0.77500952
   0.75209328  0.75921228  0.23031438
   0.75817720  0.25787565  0.27778517
   0.00264374  0.74295924  0.74662157
   0.00933272  0.28112661  0.71379642
  -0.03009313  0.75909100  0.26580573
  -0.02483873  0.24705174  0.23158064
   0.49813314  0.78394266  0.73950469
   0.48198917  0.22917231  0.72812832
   0.47984929  0.71440429  0.27991745
   0.48286678  0.26173456  0.21151202
   0.24132290  0.78026737  0.50158116
   0.21074046  0.22661556  0.51756328
   0.26399598  0.72469021  0.00994076
   0.19968342  0.23008445  0.01707033
   0.76544649  0.71867940  0.50663314
   0.73958410  0.22579216  0.51940430
   0.73482894  0.71026259  0.00150536
   0.73459250  0.27048219  0.01899477
   0.26848718  0.49302089  0.77478353
   0.22836947 -0.00616087  0.79023627
   0.21732677  0.49312342  0.26892582
   0.23738233  0.00124642  0.23316444
   0.70369911  0.50924121  0.73549021
   0.74406365 -0.00106080  0.74725089
   0.70381586  0.48687918  0.28071535
   0.69361045 -0.02125330  0.26262151
Direct configuration=    17
  -0.00517771  0.50674473  0.02045939
  -0.01131112 -0.00668733 -0.01071164
   0.50542403  0.01361136  0.01045739
   0.01130614  0.50053359  0.46939782
  -0.02178464 -0.01105217  0.49720529
   0.51636882  0.50818886  0.51922840
   0.50307668  0.00175322  0.53600969
   0.51541067  0.50411997  0.00780485
   0.23868218  0.75212433  0.75203640
   0.26369895  0.25689912  0.78704519
   0.27231979  0.76474855  0.24926096
   0.25869813  0.27031327  0.27268116
   0.74506516  0.76745003  0.72531188
   0.77972209  0.28210731  0.77330557
   0.74963710  0.76219043  0.23057230
   0.75577351  0.25909819  0.27750041
   0.00307580  0.73998235  0.74869212
   0.01240183  0.28430763  0.71333833
  -0.02606603  0.76127581  0.26858714
  -0.02125970  0.24352409  0.23553407
   0.49812936  0.78138107  0.74078437
   0.48119958  0.23052432  0.73066270
   0.48122628  0.71393267  0.27947150
   0.48183236  0.25739881  0.21263296
   0.24034234  0.77767531  0.50087672
   0.21454120  0.22243043  0.51807716
   0.26473950  0.72552136  0.01134067
   0.20068165  0.23333626  0.01657744
   0.76538692  0.71962883  0.50261842
   0.73748562  0.22578967  0.52271731
   0.73299045  0.70864406  0.00504037
   0.73392323  0.26707503  0.01947789
   0.26934074  0.49130379  0.77360797
   0.22595514 -0.00350111  0.79216550
   0.21468544  0.49185751  0.27084859
   0.23758157 -0.00094503  0.23525436
   0.70079198  0.50325414  0.73799954
   0.74515783 -0.00325970  0.74629751
   0.70618648  0.48737737  0.28163359
   0.69515213 -0.02287639  0.26395750
Direct configuration=    18
  -0.00489051  0.50704735  0.02051455
  -0.01222928 -0.00728452 -0.01119984
   0.50533239  0.01401501  0.01048759
   0.01196289  0.50115871  0.46830810
  -0.02270731 -0.01027259  0.49695223
   0.51580860  0.50877871  0.52033023
   0.50276746  0.00192850  0.53812172
   0.51515580  0.50349190  0.00852434
   0.23992977  0.75280224  0.75127807
   0.26294522  0.25783696  0.78598824
   0.27053598  0.76526318  0.24913253
   0.25820903  0.27027293  0.27252501
   0.74499961  0.76924835  0.72463337
   0.78002045  0.28200889  0.77171824
   0.74720094  0.76463465  0.23144227
   0.75282093  0.26022951  0.27735061
   0.00244281  0.73677322  0.75137187
   0.01318759  0.28809011  0.71439414
  -0.02204438  0.76276462  0.27058365
  -0.01883122  0.23973531  0.24111679
   0.49697218  0.77821332  0.74237384
   0.48119523  0.23172651  0.73372643
   0.48500000  0.71426750  0.27852829
   0.48119549  0.25336993  0.21468086
   0.23993709  0.77389419  0.50104448
   0.21959943  0.21877783  0.51682924
   0.26535909  0.72631039  0.01199553
   0.20282928  0.23719837  0.01637315
   0.76509685  0.72142819  0.49825692
   0.73497252  0.22650819  0.52509437
   0.73031076  0.70839826  0.00855468
   0.73358769  0.26338527  0.01850745
   0.27070282  0.49062551  0.77244110
   0.22476701 -0.00264428  0.79401521
   0.21249312  0.49155843  0.27278236
   0.23823146 -0.00396467  0.23806338
   0.69894147  0.49680574  0.74177789
   0.74649658 -0.00524023  0.74520047
   0.70975564  0.48750488  0.28220641
   0.69694793 -0.02332827  0.26595523
Direct configuration=    19
  -0.00461329  0.50749267  0.02056862
  -0.01300165 -0.00802044 -0.01166976
   0.50516445  0.01449281  0.01036760
   0.01230226  0.50175467  0.46756307
  -0.02380681 -0.00933103  0.49649805
   0.51502998  0.50908055  0.52111175
   0.50257205  0.00175595  0.53981579
   0.51479074  0.50307358  0.00933341
   0.24118686  0.75369804  0.75026689
   0.26180321  0.25867740  0.78407936
   0.26882742  0.76656566  0.24896671
   0.25765993  0.26982701  0.27240247
   0.74476803  0.77026924  0.72416162
   0.78028377  0.28168651  0.76974231
   0.74458552  0.76589847  0.23311142
   0.74999906  0.26085245  0.27696570
   0.00171675  0.73322288  0.75498218
   0.01200299  0.29201505  0.71716603
  -0.01847487  0.76420809  0.27226487
  -0.01718935  0.23632502  0.24875659
   0.49649098  0.77339203  0.74445091
   0.48202545  0.23246700  0.73742414
   0.49000013  0.71483249  0.27798397
   0.48129192  0.25044397  0.21817491
   0.23939020  0.76996285  0.50201945
   0.22551823  0.21524624  0.51372555
   0.26546181  0.72698257  0.01195062
   0.20504598  0.24211784  0.01550911
   0.76407452  0.72435604  0.49522149
   0.73221876  0.22699905  0.52641657
   0.72775207  0.70878987  0.01157259
   0.73406166  0.25882105  0.01647476
   0.27231631  0.48993989  0.77142445
   0.22438966 -0.00277738  0.79481890
   0.21052592  0.49211852  0.27448649
   0.23967152 -0.00754750  0.24049581
   0.69778548  0.49074613  0.74580872
   0.74877695 -0.00699247  0.74510303
   0.71488924  0.48745267  0.28250312
   0.69894849 -0.02201690  0.26881519
Direct configuration=    20
  -0.00413908  0.50753138  0.02051856
  -0.01338416 -0.00880532 -0.01223437
   0.50487016  0.01472207  0.01000748
   0.01268189  0.50234625  0.46721659
  -0.02495635 -0.00813016  0.49619507
   0.51437075  0.50910776  0.52184565
   0.50231426  0.00173685  0.54142958
   0.51425284  0.50268529  0.01006266
   0.24240377  0.75454658  0.74879408