unknown system                          
           1
     7.815874    0.000000    0.000000
     0.000000    7.815868    0.000000
     0.000000    0.000000    7.961790
   Ba   Sr   Ti   O 
     4     4     8    24
Direct configuration=     1
   0.00000016  0.00000003  0.99999994
   0.49999984  0.00000002  0.99999987
   0.49999993  0.49999997  0.99999998
   0.00000005  0.49999997  0.00000002
   1.00000000  0.00000000  0.50000000
   0.00000011  0.50000000  0.50000012
   0.50000000  0.00000001  0.49999989
   0.49999991  0.49999999  0.50000005
   0.25000006  0.24999990  0.25515098
   0.25000006  0.24999985  0.74484841
   0.25000003  0.75000010  0.25515140
   0.25000007  0.75000016  0.74484885
   0.74999997  0.24999995  0.25515170
   0.74999994  0.24999990  0.74484914
   0.74999999  0.75000003  0.25515106
   0.74999996  0.75000010  0.74484856
   0.24999999  0.25000004  0.99999896
   0.24999998  0.25000006  0.50000174
   0.24999999  0.74999998  0.00000028
   0.24999999  0.74999997  0.49999955
   0.75000000  0.25000006  0.00000130
   0.75000000  0.24999996  0.49999778
   0.75000003  0.74999992  0.99999937
   0.75000001  0.75000001  0.50000105
   0.25000000  0.99999867  0.25884951
   0.24999998  0.00000060  0.74115047
   0.24999999  0.50000133  0.25884950
   0.24999996  0.49999939  0.74115043
   0.75000000  0.00000189  0.25884961
   0.74999998  0.99999898  0.74115046
   0.75000002  0.49999809  0.25884960
   0.75000000  0.50000101  0.74115041
   0.99999803  0.25000002  0.25884959
   0.00000139  0.25000003  0.74115039
   0.00000110  0.74999998  0.25884960
   0.99999988  0.74999998  0.74115039
   0.50000198  0.25000003  0.25884962
   0.49999861  0.25000005  0.74115039
   0.49999890  0.74999998  0.25884963
   0.50000010  0.74999997  0.74115040
Direct configuration=     2
   0.00011076 -0.00011605  0.99962373
   0.49999915  0.00008335  0.99970304
   0.49973054  0.49995205  0.99997196
  -0.00019077  0.50024300 -0.00002963
   1.00006569 -0.00021261  0.50010300
  -0.00018268  0.50017919  0.50008279
   0.49999447  0.00005347  0.50002162
   0.49979597  0.50016552  0.50001393
   0.24993346  0.25020953  0.25528592
   0.25030480  0.25051984  0.74460802
   0.25042696  0.74960196  0.25498173
   0.25026792  0.75002994  0.74451443
   0.75006516  0.24984942  0.25497442
   0.74991138  0.24980594  0.74514659
   0.75053096  0.75011698  0.25520187
   0.75024924  0.75055689  0.74499151
   0.25057404  0.25036745  1.00059546
   0.24985758  0.24976163  0.50033312
   0.25010043  0.75025288 -0.00028864
   0.24967301  0.74994176  0.49944521
   0.75026949  0.25039464 -0.00062679
   0.74927069  0.25013966  0.50023433
   0.75028125  0.74997744  1.00001198
   0.75005530  0.74987411  0.50001662
   0.24969045  1.00031686  0.25799418
   0.25017462  0.00079220  0.74126908
   0.24992858  0.49913138  0.25877321
   0.24961675  0.50019708  0.74167497
   0.75002607  0.00056195  0.25818273
   0.74968121  1.00056447  0.74079745
   0.75038667  0.49955285  0.25941840
   0.74978055  0.49956786  0.74029890
   1.00023409  0.25061769  0.25932548
  -0.00048573  0.24994815  0.74130275
  -0.00009780  0.75047018  0.25850318
   1.00000354  0.74920163  0.74076055
   0.50001508  0.24974233  0.25873357
   0.49963222  0.25098385  0.74080184
   0.50136818  0.75004013  0.25989649
   0.49974021  0.75014781  0.74110373
Direct configuration=     3
   0.00030279 -0.00060061  0.99913659
   0.50007141  0.00018274  0.99937142
   0.49974380  0.49994626  1.00001452
  -0.00007998  0.50040553  0.00009769
   1.00004930 -0.00041577  0.50005963
  -0.00050610  0.50032862  0.49996734
   0.50019660  0.00000117  0.50011221
   0.49958516  0.50022513  0.49995531
   0.24997042  0.25050659  0.25557007
   0.25040908  0.25092525  0.74483605
   0.25139374  0.74893487  0.25442888
   0.25054652  0.75039067  0.74409261
   0.75036676  0.24943963  0.25448427
   0.75024330  0.24956012  0.74502259
   0.75093242  0.74998975  0.25514450
   0.75044653  0.75118005  0.74480425
   0.25069998  0.25111440  1.00079531
   0.25026735  0.24971980  0.50103535
   0.25056644  0.75072503  0.00028160
   0.25021053  0.75053106  0.49904799
   0.75065976  0.25051676 -0.00125990
   0.74836963  0.24997486  0.50066574
   0.75126234  0.75063494  0.99990955
   0.75039934  0.74968218  0.50018335
   0.24893013  1.00070312  0.25805027
   0.25079981  0.00156281  0.74134926
   0.25098790  0.49783324  0.25885585
   0.24883955  0.50073071  0.74200588
   0.75062980  0.00102259  0.25772454
   0.74948362  1.00025911  0.74031817
   0.75136228  0.50000241  0.25999142
   0.75021162  0.49950429  0.73882875
   1.00021535  0.25089665  0.25942823
  -0.00034121  0.24975660  0.74211055
   0.00015446  0.75110384  0.25839745
   1.00050087  0.74777049  0.74043747
   0.49962424  0.25021932  0.25805985
   0.50040891  0.25196952  0.74029950
   0.50270669  0.74979919  0.26077657
   0.49953884  0.75004647  0.74173816
Direct configuration=     4
   0.00039702 -0.00099598  0.99849081
   0.50023031  0.00009823  0.99890567
   0.49947223  0.49985918  0.99990428
   0.00024927  0.50080152  0.00031890
   1.00027782 -0.00061571  0.50017900
  -0.00068586  0.50035255  0.49994328
   0.50010024  0.00035200  0.50021460
   0.49943427  0.50024113  0.49987680
   0.25046198  0.25080099  0.25587768
   0.25050459  0.25106460  0.74498324
   0.25195240  0.74800074  0.25404681
   0.25117532  0.75078683  0.74377348
   0.75042635  0.24926371  0.25394308
   0.75057645  0.24965616  0.74426522
   0.75168169  0.74937307  0.25471343
   0.75002153  0.75198569  0.74483549
   0.25045488  0.25190565  0.99996931
   0.25053593  0.24932912  0.50167581
   0.25031855  0.75031589  0.00042330
   0.25080767  0.75116129  0.49844128
   0.75130106  0.25057309 -0.00176907
   0.74781453  0.24982971  0.50095038
   0.75275717  0.75128740  0.99996436
   0.75134518  0.74904642  0.50035105
   0.24841345  1.00128915  0.25850483
   0.25126445  0.00209293  0.74199518
   0.25261883  0.49699811  0.25893767
   0.24790614  0.50146202  0.74250239
   0.75066208  0.00137898  0.25713200
   0.74918676  1.00055182  0.73973208
   0.75299132  0.49974709  0.26065078
   0.75116132  0.49992637  0.73779364
   0.99986325  0.25050627  0.26005086
  -0.00001708  0.25028991  0.74305797
   0.00033017  0.75179086  0.25793640
   1.00084236  0.74613234  0.74076091
   0.49933326  0.25045331  0.25745737
   0.50114944  0.25319545  0.73987452
   0.50369402  0.74938113  0.26170645
   0.49916286  0.75029293  0.74230499
Direct configuration=     5
   0.00044951 -0.00102094  0.99782852
   0.50032664 -0.00005220  0.99830640
   0.49926326  0.49975925  0.99967966
   0.00050851  0.50115087  0.00058894
   1.00044187 -0.00082564  0.50011852
  -0.00123601  0.50043225  0.50001128
   0.50013716  0.00077722  0.50011038
   0.49904760  0.50046824  0.50001769
   0.25075151  0.25070929  0.25598217
   0.25043299  0.25111965  0.74561932
   0.25252335  0.74714486  0.25386438
   0.25146352  0.75099470  0.74331261
   0.74978357  0.24882684  0.25307659
   0.75134200  0.25005844  0.74324995
   0.75253494  0.74876843  0.25385500
   0.74955955  0.75301114  0.74481005
   0.25015074  0.25236495  0.99884074
   0.25053064  0.24909985  0.50231506
   0.24963574  0.74958295  0.00052518
   0.25186223  0.75161900  0.49710400
   0.75282960  0.25024965 -0.00219439
   0.74744815  0.24942799  0.50154791
   0.75434566  0.75192762  0.99961196
   0.75192099  0.74884741  0.50067047
   0.24800966  1.00130610  0.25789486
   0.25203444  0.00232863  0.74322418
   0.25446172  0.49553795  0.25803378
   0.24781187  0.50253387  0.74350303
   0.74958555  0.00149662  0.25605178
   0.74917191  1.00104905  0.73943532
   0.75524199  0.50070515  0.26064549
   0.75173251  0.50089606  0.73640069
   0.99930601  0.25053060  0.26113489
   0.00057569  0.25026189  0.74426421
   0.00107424  0.75233448  0.25845120
   1.00140803  0.74455444  0.74067347
   0.49917987  0.25048636  0.25649982
   0.50218640  0.25431202  0.74012488
   0.50449474  0.74850285  0.26229896
   0.49916197  0.75104763  0.74309940
Direct configuration=     6
   0.00067728 -0.00125120  0.99708279
   0.50065744 -0.00009333  0.99766915
   0.49888138  0.49948557  0.99932385
   0.00104470  0.50128806  0.00082801
   1.00022312 -0.00083278  0.50023464
  -0.00162869  0.50037594  0.50002243
   0.50015576  0.00097646  0.50011894
   0.49849332  0.50074673  0.50045182
   0.25110769  0.25056941  0.25605121
   0.25088893  0.25151318  0.74637510
   0.25274414  0.74635548  0.25383825
   0.25178661  0.75112514  0.74335312
   0.74911299  0.24851240  0.25214882
   0.75209791  0.25068099  0.74261346
   0.75303441  0.74841180  0.25322194
   0.74956180  0.75354766  0.74455444
   0.24975663  0.25363999  0.99822977
   0.25002232  0.24923202  0.50285018
   0.24874710  0.74957025  0.00098095
   0.25196850  0.75133945  0.49553659
   0.75355577  0.25018554 -0.00157016
   0.74790977  0.24855189  0.50185826
   0.75554391  0.75222225  0.99928760
   0.75277386  0.74899894  0.50073034
   0.24799424  1.00024764  0.25889327
   0.25163067  0.00112431  0.74429669
   0.25658942  0.49481165  0.25770231
   0.24812126  0.50320920  0.74502384
   0.74893187  0.00155416  0.25540365
   0.74984676  1.00147043  0.73883810
   0.75767774  0.50193398  0.26060194
   0.75276114  0.50242668  0.73573267
   0.99821097  0.25042823  0.26229080
   0.00100607  0.25090385  0.74560725
   0.00273218  0.75442709  0.25831238
   1.00181597  0.74305835  0.73961802
   0.49946081  0.24985929  0.25585103
   0.50198300  0.25596182  0.74009779
   0.50504671  0.74690154  0.26288741
   0.49952970  0.75185662  0.74392882
Direct configuration=     7
   0.00109395 -0.00155579  0.99637038
   0.50081845 -0.00012978  0.99713755
   0.49858219  0.49909143  0.99901969
   0.00157544  0.50140385  0.00138292
   1.00014791 -0.00071172  0.50027958
  -0.00187779  0.50075111  0.50016190
   0.50035426  0.00088309  0.50021877
   0.49791404  0.50111168  0.50072448
   0.25091697  0.25016157  0.25607194
   0.25113363  0.25137953  0.74771686
   0.25242394  0.74572432  0.25382307
   0.25168613  0.75123840  0.74313721
   0.74844496  0.24804422  0.25107572
   0.75261669  0.25121268  0.74215474
   0.75405232  0.74814499  0.25273072
   0.74953005  0.75413708  0.74425287
   0.24996402  0.25518203  0.99737387
   0.25041697  0.24975207  0.50289269
   0.24790268  0.74906681  0.00205692
   0.25216447  0.75121621  0.49492180
   0.75450750  0.24962483  0.00034296
   0.74843205  0.24844290  0.50207616
   0.75572311  0.75246704  0.99860161
   0.75345994  0.74940917  0.50068814
   0.24806209  0.99921339  0.25952237
   0.25067961  0.00040988  0.74586503
   0.25907530  0.49418501  0.25823258
   0.24868767  0.50334622  0.74673404
   0.74865564  0.00190765  0.25422148
   0.74990864  1.00224601  0.73850755
   0.75954583  0.50244495  0.25966108
   0.75310918  0.50454344  0.73556333
   0.99640764  0.25061929  0.26333810
   0.00137591  0.25171353  0.74680840
   0.00405270  0.75627888  0.25887457
   1.00167376  0.74246825  0.73722916
   0.49948816  0.24941307  0.25530174
   0.50187116  0.25752584  0.74036156
   0.50516930  0.74494982  0.26338678
   0.50007598  0.75247457  0.74377266
Direct configuration=     8
   0.00142128 -0.00159764  0.99544313
   0.50092874 -0.00042597  0.99674439
   0.49816365  0.49882803  0.99861144
   0.00189355  0.50160310  0.00203927
   1.00012987 -0.00057525  0.50028403
  -0.00229465  0.50081059  0.50047804
   0.50037152  0.00083992  0.50050106
   0.49720134  0.50140570  0.50098945
   0.25004147  0.25012279  0.25613071
   0.25122395  0.25103237  0.74960227
   0.25258091  0.74467973  0.25381215
   0.25144658  0.75106507  0.74274392
   0.74766245  0.24736867  0.25010194
   0.75288696  0.25205092  0.74154024
   0.75491048  0.74783123  0.25231968
   0.74983732  0.75440124  0.74394171
   0.24961005  0.25714241  0.99706414
   0.25090834  0.25033121  0.50303641
   0.24694073  0.74859088  0.00336674
   0.25191885  0.75111410  0.49561777
   0.75531728  0.24873316  0.00224156
   0.74890461  0.24850515  0.50219933
   0.75546975  0.75202520  0.99935393
   0.75416318  0.75023188  0.50027289
   0.24788328  0.99856188  0.26096125
   0.24887323 -0.00001811  0.74575935
   0.26125773  0.49526464  0.25892358
   0.24957540  0.50340988  0.74853366
   0.74884368  0.00115250  0.25313664
   0.74981647  1.00284228  0.73844083
   0.76143744  0.50186535  0.25852350
   0.75259273  0.50618439  0.73543523
   0.99555163  0.25045721  0.26447503
   0.00260042  0.25279983  0.74743448
   0.00572017  0.75782240  0.25873954
   1.00257040  0.74333511  0.73445664
   0.49926961  0.24910496  0.25512782
   0.50133326  0.25877420  0.74086851
   0.50566734  0.74315077  0.26333162
   0.50037602  0.75266703  0.74371023
Direct configuration=     9
   0.00197094 -0.00161160  0.99466365
   0.50132184 -0.00077001  0.99651960
   0.49776920  0.49831725  0.99818256
   0.00213509  0.50174178  0.00264441
   1.00025216 -0.00053695  0.50023774
  -0.00266739  0.50073480  0.50080462
   0.50050929  0.00088448  0.50068277
   0.49649391  0.50218305  0.50095605
   0.24910876  0.24974891  0.25619508
   0.25163258  0.25073775  0.75077396
   0.25272884  0.74377028  0.25358064
   0.25100534  0.75085475  0.74243816
   0.74716380  0.24669707  0.24977185
   0.75351020  0.25309398  0.74056056
   0.75528344  0.74786106  0.25168814
   0.75012401  0.75425862  0.74352875
   0.24929649  0.25845484  0.99658098
   0.25126148  0.25071271  0.50342256
   0.24540610  0.74836735  0.00435404
   0.25203114  0.75056046  0.49815275
   0.75574122  0.24822482  0.00405562
   0.74970823  0.24832264  0.50186769
   0.75411812  0.75186478  0.99990565
   0.75472609  0.75129656  0.49967246
   0.24832957  0.99750967  0.26145037
   0.24709378  0.00027178  0.74610493
   0.26222731  0.49751517  0.25910771
   0.25087783  0.50317542  0.75028623
   0.74902198 -0.00041273  0.25303477
   0.74914420  1.00358756  0.73819507
   0.76281238  0.50167002  0.25643950
   0.75249203  0.50706709  0.73573194
   0.99542819  0.25062184  0.26528369
   0.00297005  0.25376286  0.74788137
   0.00672330  0.75950610  0.25871506
   1.00356483  0.74404560  0.73294222
   0.49889729  0.24879572  0.25524119
   0.50162634  0.26060371  0.74089151
   0.50630758  0.74179408  0.26261350
   0.50001724  0.75287929  0.74322841
Direct configuration=    10
   0.00275075 -0.00190786  0.99388771
   0.50188786 -0.00092761  0.99619654
   0.49734191  0.49770546  0.99781722
   0.00237905  0.50179511  0.00340030
   1.00047761 -0.00066118  0.49988603
  -0.00303880  0.50076721  0.50113047
   0.50036631  0.00078949  0.50067003
   0.49587810  0.50290289  0.50105313
   0.24803820  0.24942403  0.25634125
   0.25196993  0.25000035  0.75181182
   0.25305304  0.74325728  0.25373401
   0.25075006  0.75094531  0.74243897
   0.74762767  0.24563776  0.24901431
   0.75450042  0.25398371  0.74005088
   0.75515602  0.74734504  0.25128283
   0.75086113  0.75401766  0.74304230
   0.24888031  0.25884032  0.99669742
   0.25191410  0.25131027  0.50402181
   0.24447844  0.74779374  0.00552529
   0.25254699  0.75019721  0.50143831
   0.75568533  0.24896103  0.00645378
   0.75084621  0.24808681  0.50118089
   0.75348233  0.75166176  1.00002974
   0.75497227  0.75215685  0.49957994
   0.24912564  0.99674581  0.26095801
   0.24552774  0.00055072  0.74689400
   0.26250389  0.50067762  0.25961117
   0.25239904  0.50280539  0.75174822
   0.74879089 -0.00195613  0.25250215
   0.74799314  1.00407121  0.73836449
   0.76401289  0.50177921  0.25428530
   0.75241166  0.50741745  0.73661104
   0.99548227  0.24989382  0.26606585
   0.00351012  0.25461409  0.74868921
   0.00758295  0.75949891  0.25835097
   1.00379619  0.74569036  0.73144985
   0.49774034  0.24828998  0.25648937
   0.50255779  0.26235024  0.74037844
   0.50685809  0.74063140  0.26208254
   0.50040716  0.75279773  0.74168624
Direct configuration=    11
   0.00325631 -0.00205507  0.99326513
   0.50240429 -0.00075801  0.99610074
   0.49684758  0.49703543  0.99750293
   0.00252133  0.50184049  0.00422832
   1.00013056 -0.00058462  0.49985442
  -0.00346067  0.50107826  0.50175774
   0.49978485  0.00083393  0.50056466
   0.49527073  0.50366702  0.50099249
   0.24679959  0.24901042  0.25670930
   0.25257171  0.24936501  0.75230341
   0.25337809  0.74279371  0.25416297
   0.25005442  0.75037719  0.74232109
   0.74773126  0.24421403  0.24845354
   0.75542092  0.25502703  0.73910095
   0.75499238  0.74673927  0.25102580
   0.75133526  0.75364193  0.74240957
   0.24837890  0.25874613  0.99715503
   0.25299118  0.25152151  0.50408431
   0.24328232  0.74612920  0.00734425
   0.25310677  0.75010869  0.50418344
   0.75518796  0.24956121  0.00829663
   0.75124863  0.24773483  0.50076804
   0.75261620  0.75108417  0.99955131
   0.75524360  0.75344896  0.50038548
   0.25045285  0.99651176  0.26013792
   0.24483878  0.00025592  0.74793139
   0.26232082  0.50349888  0.25993454
   0.25261038  0.50195123  0.75355162
   0.74940944 -0.00285256  0.25234854
   0.74724486  1.00472171  0.73870932
   0.76526948  0.50180933  0.25245271
   0.75227678  0.50698198  0.73739336
   0.99645132  0.24991793  0.26627447
   0.00380291  0.25560082  0.74909309
   0.00761222  0.75890794  0.25849204
   1.00398396  0.74721556  0.73091781
   0.49712831  0.24794949  0.25681827
   0.50326675  0.26350206  0.74054739
   0.50705241  0.74002828  0.26120186
   0.50112446  0.75284789  0.74019603
Direct configuration=    12
   0.00402170 -0.00191055  0.99265344
   0.50298507 -0.00055940  0.99601564
   0.49631777  0.49630787  0.99738231
   0.00267352  0.50175676  0.00499996
   0.99967565 -0.00047944  0.49983954
  -0.00391936  0.50142677  0.50239832
   0.49935896  0.00106627  0.50016176
   0.49456006  0.50397644  0.50089488
   0.24602871  0.24833682  0.25717044
   0.25278616  0.24925815  0.75264043
   0.25379898  0.74282491  0.25494969
   0.24949234  0.74938842  0.74216071
   0.74747782  0.24292196  0.24784199
   0.75627023  0.25614264  0.73819557
   0.75471444  0.74554975  0.25061345
   0.75184433  0.75316815  0.74115467
   0.24789288  0.25865497  0.99804307
   0.25423573  0.25132567  0.50444761
   0.24226318  0.74430501  0.00798882
   0.25393626  0.74982574  0.50711164
   0.75453028  0.25034552  0.00979787
   0.75217491  0.24623647  0.50202896
   0.75197413  0.74989602  0.99873398
   0.75498590  0.75450103  0.50115271
   0.25146587  0.99731754  0.25914664
   0.24457029 -0.00058891  0.74926302
   0.26152626  0.50476399  0.26074061
   0.25286789  0.50163335  0.75457751
   0.75042157 -0.00409993  0.25178156
   0.74654929  1.00563727  0.73903309
   0.76541477  0.50133487  0.25036404
   0.75310702  0.50579054  0.73815734
   0.99887173  0.24971267  0.26570234
   0.00380078  0.25637845  0.74887442
   0.00765809  0.75733052  0.25809327
   1.00340691  0.74917623  0.73079296
   0.49653370  0.24830132  0.25620915
   0.50383066  0.26397730  0.74062714
   0.50690999  0.74010909  0.26046637
   0.50160428  0.75311530  0.73773028
Direct configuration=    13
   0.00477662 -0.00148806  0.99206598
   0.50363153 -0.00044199  0.99602003
   0.49588921  0.49557638  0.99706965
   0.00287969  0.50164599  0.00577353
   0.99907650 -0.00058060  0.49968541
  -0.00474345  0.50169048  0.50303553
   0.49903804  0.00119916  0.49970234
   0.49397649  0.50457524  0.50099593
   0.24533060  0.24744857  0.25810131
   0.25346984  0.24930418  0.75238281
   0.25381853  0.74333978  0.25554122
   0.24911471  0.74853752  0.74184784
   0.74687258  0.24175352  0.24710231
   0.75664871  0.25737993  0.73738913
   0.75442890  0.74442369  0.25022509
   0.75235032  0.75290781  0.73997040
   0.24767505  0.25800633  0.99995632
   0.25494901  0.25023406  0.50398283
   0.24215630  0.74224827  0.00839161
   0.25493756  0.74978702  0.50960037
   0.75346483  0.25113192  0.01111439
   0.75360683  0.24378767  0.50278943
   0.75126063  0.74891016  0.99816521
   0.75456444  0.75516643  0.50178767
   0.25314332  0.99975788  0.25837630
   0.24450111 -0.00106647  0.75118050
   0.26004507  0.50552410  0.26156110
   0.25319020  0.50142952  0.75643723
   0.75125399 -0.00519174  0.25223444
   0.74629003  1.00721520  0.73953522
   0.76544642  0.50102213  0.24885995
   0.75298676  0.50455081  0.73855050
   1.00261469  0.24888640  0.26596022
   0.00404875  0.25723181  0.74794425
   0.00774581  0.75518914  0.25884935
   1.00255848  0.75086764  0.73093706
   0.49655114  0.24904008  0.25561700
   0.50447122  0.26340277  0.74103810
   0.50587351  0.74104196  0.25929133
   0.50202859  0.75385967  0.73528764
Direct configuration=    14
   0.00554237 -0.00133728  0.99169294
   0.50433526 -0.00049177  0.99586033
   0.49551359  0.49460776  0.99687928
   0.00306948  0.50167755  0.00633133
   0.99864063 -0.00042829  0.49941056
  -0.00552467  0.50206595  0.50365637
   0.49886713  0.00153909  0.49922330
   0.49377354  0.50514257  0.50134802
   0.24477404  0.24673778  0.25921146
   0.25372335  0.24958288  0.75195998
   0.25382648  0.74400551  0.25620173
   0.24901597  0.74742870  0.74198111
   0.74626103  0.24083717  0.24636552
   0.75694003  0.25891465  0.73651730
   0.75408615  0.74308474  0.25006618
   0.75223266  0.75277462  0.73885525
   0.24829652  0.25719018  1.00158074
   0.25565288  0.24923080  0.50335987
   0.24182803  0.74029482  0.00910312
   0.25602853  0.75019808  0.51145814
   0.75258511  0.25164950  0.01184164
   0.75607829  0.24117880  0.50252086
   0.75081907  0.74903769  0.99791116
   0.75473366  0.75573676  0.50197069
   0.25473844  1.00296859  0.25778349
   0.24486012 -0.00135144  0.75228238
   0.25834319  0.50501471  0.26181099
   0.25380631  0.50081031  0.75762698
   0.75161293 -0.00625119  0.25224292
   0.74630368  1.00827919  0.74037458
   0.76567516  0.50075116  0.24804828
   0.75264539  0.50345786  0.73951888
   1.00680131  0.24850329  0.26596146
   0.00439535  0.25791322  0.74714436
   0.00831828  0.75232854  0.25948084
   1.00180854  0.75219223  0.73094215
   0.49642623  0.24999565  0.25476151
   0.50537438  0.26233193  0.74181677
   0.50457529  0.74198525  0.25791972
   0.50253585  0.75412227  0.73289500
Direct configuration=    15
   0.00633368 -0.00139604  0.99135023
   0.50497086 -0.00017691  0.99594445
   0.49505706  0.49388479  0.99670314
   0.00333121  0.50206921  0.00665544
   0.99834359 -0.00021983  0.49885145
  -0.00636717  0.50237228  0.50408016
   0.49872013  0.00187557  0.49883943
   0.49393043  0.50543806  0.50184275
   0.24442688  0.24609356  0.26017819
   0.25415243  0.24967605  0.75137333
   0.25393515  0.74500515  0.25689234
   0.24806934  0.74637287  0.74273235
   0.74570367  0.24005228  0.24627770
   0.75750433  0.26001544  0.73552287
   0.75352236  0.74224773  0.24986528
   0.75203422  0.75321688  0.73822428
   0.24814115  0.25678142  1.00321518
   0.25642963  0.24847326  0.50261642
   0.24246048  0.73929750  0.00954543
   0.25710817  0.74910361  0.51228506
   0.75244660  0.25260557  0.01152320
   0.75873260  0.23925813  0.50240868
   0.75060101  0.74943933  0.99792747
   0.75512343  0.75597021  0.50133200
   0.25745475  1.00534093  0.25807713
   0.24534702 -0.00125946  0.75397519
   0.25653570  0.50417165  0.26220967
   0.25457288  0.49955330  0.75862421
   0.75187717 -0.00637854  0.25220901
   0.74602971  1.00980843  0.74097003
   0.76514643  0.50077815  0.24739749
   0.75282008  0.50193223  0.74098798
   1.01040356  0.24747346  0.26630354
   0.00545050  0.25773887  0.74537616
   0.00781213  0.74981692  0.26068239
   1.00080028  0.75331826  0.73096244
   0.49677744  0.25148054  0.25392623
   0.50570364  0.26038408  0.74208223
   0.50279972  0.74332211  0.25706951
   0.50334657  0.75331043  0.73094525
Direct configuration=    16
   0.00708519 -0.00142233  0.99118609
   0.50575403  0.00001571  0.99614227
   0.49473481  0.49364609  0.99680120
   0.00363918  0.50259571  0.00666385
   0.99816084  0.00006902  0.49842920
  -0.00734067  0.50258324  0.50413448
   0.49848428  0.00221022  0.49796838
   0.49406329  0.50550340  0.50230293
   0.24446773  0.24548210  0.26083888
   0.25409464  0.25003701  0.75058303
   0.25462393  0.74589184  0.25713834
   0.24760659  0.74532896  0.74382673
   0.74495174  0.23962714  0.24615650
   0.75773384  0.26085777  0.73438184
   0.75274899  0.74139636  0.24961875
   0.75174442  0.75347630  0.73741966
   0.24772733  0.25554487  1.00422451
   0.25771178  0.24819360  0.50232882
   0.24382625  0.73876617  0.01044628
   0.25825029  0.74793509  0.51169067
   0.75271989  0.25376454  0.00972205
   0.76141609  0.23737528  0.50147832
   0.74978339  0.75061544  0.99752342
   0.75557981  0.75539120  0.50042865
   0.25980679  1.00617092  0.25850352
   0.24606732 -0.00129140  0.75561521
   0.25501319  0.50293107  0.26272543
   0.25454072  0.49821429  0.75910617
   0.75199667 -0.00650005  0.25207207
   0.74561570  1.01077946  0.74251223
   0.76512129  0.49978085  0.24692986
   0.75317194  0.50113895  0.74268040
   1.01300905  0.24651640  0.26655019
   0.00599794  0.25753544  0.74319353
   0.00723130  0.74761258  0.26177851
   1.00008714  0.75483950  0.73137420
   0.49846629  0.25257524  0.25330096
   0.50509081  0.25859462  0.74145003
   0.50114495  0.74476856  0.25720930
   0.50390506  0.75218262  0.72900354
Direct configuration=    17
   0.00786629 -0.00114186  0.99090557
   0.50655215  0.00008421  0.99642694
   0.49442763  0.49345334  0.99674539
   0.00386081  0.50307816  0.00638260
   0.99784678  0.00008347  0.49806241
  -0.00769294  0.50260952  0.50439314
   0.49801384  0.00275683  0.49724274
   0.49439593  0.50561924  0.50283518
   0.24462690  0.24486969  0.26092923
   0.25423208  0.25037225  0.75006563
   0.25536928  0.74685601  0.25639218
   0.24717864  0.74391805  0.74527881
   0.74431457  0.23916045  0.24613775
   0.75751411  0.26107556  0.73292327
   0.75209113  0.74048497  0.24897388
   0.75097680  0.75431541  0.73667626
   0.24715658  0.25455231  1.00411344
   0.25938079  0.24735445  0.50292096
   0.24518168  0.73887834  0.01097546
   0.25934867  0.74777141  0.51055032
   0.75375719  0.25476486  0.00759608
   0.76393441  0.23591720  0.49977696
   0.74949142  0.75166291  0.99784651
   0.75566337  0.75543394  0.49930980
   0.26200105  1.00625354  0.25868681
   0.24699900  0.00037962  0.75727697
   0.25280127  0.50161532  0.26365408
   0.25479112  0.49696469  0.75865273
   0.75263292 -0.00702587  0.25233819
   0.74622142  1.01133099  0.74496691
   0.76454548  0.49851568  0.24728787
   0.75264623  0.50052761  0.74410799
   1.01485183  0.24594378  0.26608631
   0.00675359  0.25782331  0.74163585
   0.00610892  0.74636152  0.26339287
   1.00037905  0.75635627  0.73271790
   0.50132254  0.25411876  0.25272837
   0.50466867  0.25679463  0.74100503
   0.50048749  0.74621025  0.25757891
   0.50425652  0.75074733  0.72821412
Direct configuration=    18
   0.00876421 -0.00089361  0.99089558
   0.50725422  0.00017726  0.99678975
   0.49426229  0.49330771  0.99681874
   0.00426587  0.50340207  0.00620182
   0.99755130 -0.00008702  0.49801458
  -0.00805706  0.50271348  0.50466721
   0.49721769  0.00298228  0.49654783
   0.49466514  0.50573338  0.50326644
   0.24514362  0.24466895  0.26115146
   0.25401576  0.25077866  0.74946466
   0.25591290  0.74764856  0.25521649
   0.24700573  0.74253469  0.74713890
   0.74377339  0.23834586  0.24624213
   0.75731190  0.26042606  0.73138677
   0.75134315  0.73937129  0.24835310
   0.74992302  0.75537129  0.73597313
   0.24669567  0.25247230  1.00444602
   0.26078777  0.24673887  0.50443678
   0.24650353  0.73934348  0.01132882
   0.26039701  0.74762472  0.50939657
   0.75424885  0.25529960  0.00484671
   0.76574720  0.23484435  0.49686104
   0.74963447  0.75275841  0.99865116
   0.75599488  0.75505950  0.49761686
   0.26390567  1.00518469  0.25884349
   0.24935955  0.00186527  0.75879156
   0.25082160  0.50108550  0.26578740
   0.25549694  0.49648786  0.75765112
   0.75300543 -0.00796285  0.25259166
   0.74722404  1.01165710  0.74767936
   0.76462972  0.49660951  0.24883303
   0.75224049  0.49961575  0.74522155
   1.01498084  0.24492554  0.26536697
   0.00662878  0.25770847  0.73965784
   0.00574444  0.74579798  0.26503136
   1.00067997  0.75665335  0.73410564
   0.50526433  0.25585488  0.25297892
   0.50427852  0.25445844  0.74124731
   0.49974601  0.74703041  0.25768476
   0.50454439  0.74888503  0.72853236
Direct configuration=    19
   0.00976633 -0.00063543  0.99089150
   0.50805719  0.00017044  0.99728955
   0.49422842  0.49308445  0.99680585
   0.00478300  0.50343428  0.00587706
   0.99714321 -0.00064872  0.49767538
  -0.00847919  0.50232291  0.50462944
   0.49658043  0.00341619  0.49589877
   0.49503534  0.50582804  0.50359956
   0.24662258  0.24485941  0.26141532
   0.25428625  0.25122790  0.74889703
   0.25663463  0.74848585  0.25386181
   0.24712925  0.74072969  0.74857957
   0.74369080  0.23804895  0.24649362
   0.75708893  0.25944127  0.73021021
   0.75110839  0.73870719  0.24748921
   0.74873115  0.75640678  0.73590306
   0.24624658  0.25027300  1.00469333
   0.26219920  0.24613824  0.50688935
   0.24792636  0.74042463  0.01160201
   0.26136753  0.74729364  0.50819730
   0.75550768  0.25498472  0.00135402
   0.76775223  0.23407251  0.49360079
   0.75022024  0.75417612  0.99841717
   0.75571271  0.75428231  0.49625971
   0.26536667  1.00341225  0.25888435
   0.25237791  0.00198950  0.76050931
   0.24971609  0.50049207  0.26826687
   0.25585190  0.49688756  0.75628452
   0.75341628 -0.00813921  0.25229452