unknown system                          
           1
     7.815874    0.000000    0.000000
     0.000000    7.815868    0.000000
     0.000000    0.000000    7.969675
   Ba   Sr   Ti   O 
     4     4     8    24
Direct configuration=     1
   0.99999954  0.99999989  0.00000018
   0.50000023  0.50000012  0.00000004
   0.00000005  0.50000005  0.50000017
   0.50000026  0.99999996  0.49999963
   0.99999965  0.99999993  0.49999987
   0.99999987  0.50000003  0.99999979
   0.50000066  0.99999995  0.00000049
   0.49999996  0.50000006  0.50000002
   0.25000000  0.24999990  0.24999999
   0.25000002  0.24999982  0.75000003
   0.24999995  0.75000004  0.24999998
   0.25000007  0.75000019  0.75000005
   0.75000005  0.25000001  0.25000004
   0.74999993  0.24999992  0.74999994
   0.75000004  0.74999995  0.25000006
   0.75000000  0.75000010  0.74999997
   0.25000001  0.25000002  0.99999952
   0.25000000  0.25000004  0.50000046
   0.24999993  0.75000000  0.00000002
   0.24999994  0.74999998  0.49999993
   0.74999997  0.24999977  0.00000068
   0.75000003  0.24999976  0.49999920
   0.75000004  0.75000021  0.99999979
   0.75000009  0.75000016  0.50000027
   0.25000004  0.99999970  0.25000007
   0.24999988  0.00000012  0.74999987
   0.25000004  0.50000034  0.25000010
   0.24999991  0.49999997  0.74999989
   0.74999996  0.00000046  0.24999998
   0.75000002  0.99999977  0.75000000
   0.74999996  0.49999953  0.25000000
   0.75000005  0.50000021  0.74999999
   0.99999923  0.24999977  0.25000009
   0.00000037  0.24999997  0.74999991
   0.00000033  0.75000022  0.25000005
   0.99999989  0.75000002  0.74999997
   0.50000076  0.24999982  0.25000004
   0.49999951  0.25000003  0.74999989
   0.49999967  0.75000021  0.24999999
   0.50000010  0.74999999  0.75000002
Direct configuration=     2
   0.99989451  0.99975075 -0.00030381
   0.50010021  0.49997364 -0.00017926
   0.00000313  0.49960947  0.49989144
   0.50009199  1.00015110  0.49990003
   0.99986667  1.00023094  0.50005752
   1.00010869  0.50034664  0.99983421
   0.49989900  1.00023714  0.00036064
   0.50023408  0.49982653  0.50002792
   0.24992849  0.24976697  0.25048253
   0.25007769  0.25021745  0.75027668
   0.25002811  0.74932610  0.24959133
   0.25044236  0.75039012  0.74978557
   0.74967912  0.24985711  0.25050110
   0.75004865  0.25037127  0.75006827
   0.75010019  0.74980854  0.24988894
   0.74978138  0.75008171  0.75017629
   0.25027086  0.24935586  0.99967114
   0.25069303  0.24979406  0.49966419
   0.25037766  0.74954358 -0.00014628
   0.25018799  0.75030793  0.49992117
   0.74984638  0.25065042  0.00021686
   0.74999645  0.24920688  0.49949831
   0.74963053  0.74922965  0.99979262
   0.74971556  0.75034270  0.50067223
   0.24994202  0.99915819  0.25025152
   0.25122999  0.00075696  0.74949164
   0.25039838  0.50001572  0.25084868
   0.24943334  0.50042854  0.75017134
   0.74986555 -0.00016595  0.24947112
   0.75013813  1.00009484  0.74978479
   0.75053358  0.49955571  0.24992773
   0.74983839  0.49942413  0.74998009
   1.00002156  0.24966778  0.25030284
   0.00064576  0.24985547  0.74995228
  -0.00005319  0.74972495  0.24992713
   1.00027102  0.75014397  0.74951410
   0.49968211  0.24954257  0.25005377
   0.49974466  0.24942844  0.75091052
   0.49972591  0.74946790  0.24932139
   0.49971313  0.75049689  0.74933592
Direct configuration=     3
   0.99923670  0.99959388 -0.00093325
   0.50023886  0.49985350 -0.00011482
   0.00011523  0.49927385  0.49953573
   0.49988150  1.00024119  0.49961269
   0.99966857  1.00032271  0.50019358
   1.00044419  0.50048403  0.99945771
   0.49981320  1.00017723  0.00084688
   0.50043872  0.50016632  0.49986586
   0.24972638  0.24933988  0.25075858
   0.25044712  0.25002494  0.75029921
   0.24997471  0.74829667  0.24907647
   0.25071085  0.75023170  0.74971838
   0.74946543  0.25007966  0.25130725
   0.74972609  0.25110160  0.75010123
   0.75084941  0.74957020  0.24970471
   0.74985484  0.75000275  0.75022672
   0.25036968  0.24906294  0.99976477
   0.25116046  0.25032781  0.49984175
   0.25047535  0.74868955 -0.00057592
   0.25075552  0.75070031  0.49969765
   0.75033693  0.25153791  0.00054095
   0.75021972  0.24814000  0.49854554
   0.74919647  0.74843795  1.00001306
   0.74914749  0.75182622  0.50187342
   0.25033396  0.99811682  0.25064829
   0.25247749  0.00124325  0.74939510
   0.25150806  0.50061531  0.25179710
   0.24939044  0.50097225  0.74970723
   0.74921400  0.00020810  0.24960144
   0.75085213  0.99980830  0.75036279
   0.75129598  0.49865530  0.24894527
   0.75020982  0.49918697  0.75018669
   1.00041647  0.25022544  0.25049188
   0.00166355  0.24900588  0.74987618
  -0.00008916  0.74975185  0.25045554
   1.00006034  0.75136244  0.74911629
   0.49898625  0.24956959  0.24957011
   0.49897894  0.24827165  0.75217534
   0.49997881  0.74787786  0.24765427
   0.49945635  0.75044179  0.74883215
Direct configuration=     4
   0.99833121  0.99945074 -0.00169093
   0.50057442  0.50014657 -0.00002172
   0.00027229  0.49901651  0.49921515
   0.49940623  1.00057312  0.49956844
   0.99976373  1.00037154  0.50041006
   1.00083350  0.50066613  0.99897285
   0.49957430  1.00015522  0.00148490
   0.50065531  0.50054626  0.49936135
   0.24929216  0.24882094  0.25090027
   0.25164707  0.25018501  0.75075546
   0.24970717  0.74675088  0.24925351
   0.25026850  0.74994291  0.74902131
   0.74887733  0.25025376  0.25167901
   0.74921135  0.25152461  0.75056019
   0.75194194  0.74935455  0.24970345
   0.74954944  0.75016992  0.75046790
   0.25062977  0.24746929  1.00023905
   0.25302901  0.24993588  0.49948600
   0.25071947  0.74762582 -0.00071497
   0.25171653  0.75006475  0.49835005
   0.75073057  0.25258916  0.00036846
   0.75063309  0.24711354  0.49807488
   0.74831445  0.74815848  0.99990130
   0.74900686  0.75377593  0.50258796
   0.25041752  0.99730833  0.25129987
   0.25358184  0.00180350  0.74963596
   0.25410572  0.50154637  0.25317617
   0.24896794  0.50169195  0.74925077
   0.74897987  0.00080123  0.24797292
   0.75180035  1.00027968  0.75102566
   0.75251200  0.49742283  0.24792960
   0.75105801  0.49938068  0.75004671
   1.00132220  0.25129955  0.25049187
   0.00243477  0.24806287  0.74967420
  -0.00023207  0.74912775  0.25101729
   1.00062190  0.75153403  0.74905988
   0.49846023  0.25024888  0.24880400
   0.49824401  0.24822350  0.75389561
   0.50029588  0.74578002  0.24610895
   0.49972124  0.75032063  0.74800181
Direct configuration=     5
   0.99723397  0.99924695 -0.00238663
   0.50086132  0.50065771 -0.00001264
   0.00034561  0.49870502  0.49901295
   0.49901290  1.00093445  0.49957640
   1.00023389  1.00021528  0.50101615
   1.00128124  0.50074630  0.99825472
   0.49905555  1.00066911  0.00239963
   0.50110125  0.50086537  0.49865925
   0.24920855  0.24833981  0.25122151
   0.25275184  0.25018216  0.75109780
   0.24998962  0.74576803  0.24953816
   0.24951006  0.74989831  0.74839711
   0.74832137  0.25008096  0.25229590
   0.74849551  0.25241641  0.75113044
   0.75286407  0.74911207  0.24969009
   0.74890716  0.75082904  0.75018865
   0.25079708  0.24574095  1.00096426
   0.25471046  0.24994748  0.49889218
   0.25113604  0.74608317 -0.00113711
   0.25250174  0.74986045  0.49691559
   0.75141553  0.25315882 -0.00005968
   0.75067158  0.24636807  0.49800185
   0.74794133  0.74760251  0.99959029
   0.74921251  0.75603218  0.50261944
   0.25053842  0.99694579  0.25200640
   0.25480511  0.00155096  0.74960824
   0.25541233  0.50179073  0.25370909
   0.24772495  0.50227988  0.74941146
   0.74902291  0.00172292  0.24550346
   0.75227144  1.00127836  0.75140579
   0.75363763  0.49639559  0.24698131
   0.75238067  0.49928922  0.75045498
   1.00215908  0.25217926  0.25061341
   0.00342004  0.24674020  0.74989371
  -0.00008625  0.74790879  0.25138343
   1.00131604  0.75198350  0.74894141
   0.49828670  0.25027975  0.24771194
   0.49781809  0.24822175  0.75501794
   0.50080466  0.74401230  0.24412246
   0.49987576  0.75079537  0.74767964
Direct configuration=     6
   0.99617209  0.99854160 -0.00296337
   0.50122264  0.50155284  0.00010409
   0.00029973  0.49843177  0.49879630
   0.49877439  1.00099458  0.49978345
   1.00068822  0.99985756  0.50128180
   1.00200596  0.50077393  0.99768615
   0.49864195  1.00120034  0.00333834
   0.50125577  0.50122468  0.49823991
   0.24915851  0.24788572  0.25197803
   0.25371362  0.24994448  0.75153588
   0.25050037  0.74500913  0.25038929
   0.24878918  0.74955103  0.74837744
   0.74740343  0.24970090  0.25310624
   0.74756912  0.25349523  0.75170466
   0.75386586  0.74867572  0.24942092
   0.74803400  0.75182166  0.75006538
   0.25091717  0.24464524  1.00170888
   0.25597176  0.24999845  0.49837563
   0.25164567  0.74528391 -0.00171908
   0.25299287  0.75004644  0.49637548
   0.75140728  0.25357444 -0.00016626
   0.75092988  0.24544487  0.49859024
   0.74839599  0.74720816  0.99959988
   0.74959087  0.75880580  0.50200826
   0.25085175  0.99646779  0.25301122
   0.25568048  0.00095830  0.74989576
   0.25690091  0.50232520  0.25467825
   0.24685676  0.50269807  0.74918983
   0.74852176  0.00253751  0.24346685
   0.75312336  1.00148687  0.75256418
   0.75543783  0.49574652  0.24530471
   0.75302796  0.49894803  0.75036134
   1.00337717  0.25243273  0.25126884
   0.00432174  0.24629396  0.74991901
   0.00001266  0.74643566  0.25137789
   1.00273288  0.75221178  0.74857526
   0.49788066  0.25039660  0.24656091
   0.49793846  0.24725065  0.75606411
   0.50148494  0.74183439  0.24271167
   0.49987608  0.75126344  0.74688774
Direct configuration=     7
   0.99528196  0.99777878 -0.00358238
   0.50168976  0.50251515 -0.00005792
   0.00031444  0.49797975  0.49843482
   0.49825741  1.00131989  0.49986020
   1.00110971  0.99938830  0.50180823
   1.00263344  0.50084517  0.99689952
   0.49838405  1.00184510  0.00458487
   0.50134602  0.50126161  0.49770919
   0.24898922  0.24736158  0.25267817
   0.25472302  0.24943465  0.75210562
   0.25089798  0.74441379  0.25076522
   0.24856028  0.74945582  0.74848382
   0.74665586  0.24957027  0.25423984
   0.74637862  0.25434325  0.75207120
   0.75483427  0.74833842  0.24962152
   0.74705887  0.75341346  0.74981448
   0.25077301  0.24407228  1.00204731
   0.25853200  0.25084370  0.49766500
   0.25200897  0.74481337 -0.00243823
   0.25287274  0.75069413  0.49614368
   0.75141593  0.25338963  0.00011925
   0.75107006  0.24458348  0.49883320
   0.74965652  0.74680872  1.00011175
   0.75080556  0.76145309  0.50169276
   0.25102725  0.99650583  0.25319863
   0.25617520 -0.00062739  0.74970218
   0.25756848  0.50141433  0.25555740
   0.24625288  0.50238905  0.74897411
   0.74869376  0.00338883  0.24148026
   0.75459905  1.00139452  0.75394805
   0.75750037  0.49578213  0.24379467
   0.75424378  0.49901843  0.74932084
   1.00429699  0.25348666  0.25163246
   0.00593657  0.24597096  0.75056917
  -0.00056368  0.74558047  0.25124097
   1.00410103  0.75233007  0.74857933
   0.49792064  0.25023280  0.24532745
   0.49983184  0.24559230  0.75755989
   0.50174000  0.73993224  0.24156742
   0.49990948  0.75154488  0.74673284
Direct configuration=     8
   0.99455401  0.99702991 -0.00414834
   0.50239025  0.50326754 -0.00034444
   0.00022482  0.49744844  0.49824709
   0.49805609  1.00144980  0.49963388
   1.00145183  0.99903205  0.50233641
   1.00328178  0.50115558  0.99578245
   0.49793004  1.00215145  0.00609605
   0.50140479  0.50112562  0.49703677
   0.24899052  0.24668463  0.25321084
   0.25490781  0.24927871  0.75278150
   0.25113143  0.74365662  0.25097465
   0.24837006  0.74944284  0.74904377
   0.74623507  0.24953259  0.25535268
   0.74483527  0.25540350  0.75270123
   0.75548876  0.74785493  0.24961055
   0.74601071  0.75522146  0.74980526
   0.25002741  0.24414089  1.00178661
   0.26065215  0.25337534  0.49739086
   0.25204859  0.74369580 -0.00378662
   0.25364935  0.75192343  0.49532162
   0.75254630  0.25307968 -0.00008336
   0.75076772  0.24497913  0.49901171
   0.75114390  0.74691118  1.00101781
   0.75250397  0.76341427  0.50203507
   0.25087353  0.99680315  0.25417891
   0.25652238 -0.00157197  0.74997652
   0.25799514  0.49888247  0.25673205
   0.24555079  0.50154176  0.74914693
   0.74845487  0.00349141  0.23874979
   0.75622909  1.00133366  0.75529599
   0.75896666  0.49661296  0.24208286
   0.75536429  0.49897517  0.74753185
   1.00568574  0.25486850  0.25173144
   0.00718390  0.24594258  0.75105736
  -0.00063397  0.74441789  0.25156756
   1.00501906  0.75164203  0.74799223
   0.49740684  0.24981116  0.24495038
   0.50241514  0.24354863  0.75869755
   0.50265646  0.73826566  0.24051685
   0.49998966  0.75118033  0.74695241
Direct configuration=     9
   0.99381030  0.99628906 -0.00460545
   0.50293236  0.50390349 -0.00047956
  -0.00014455  0.49681953  0.49828362
   0.49769833  1.00130335  0.49925607
   1.00183459  0.99855673  0.50303714
   1.00367625  0.50163010  0.99457877
   0.49718447  1.00244749  0.00757011
   0.50169422  0.50102667  0.49621125
   0.24856284  0.24588356  0.25354639
   0.25455943  0.24913297  0.75350631
   0.25119553  0.74320648  0.25093291
   0.24822589  0.74951841  0.74973279
   0.74557498  0.24957642  0.25648988
   0.74393069  0.25633189  0.75337592
   0.75597194  0.74719690  0.24985413
   0.74437066  0.75675198  0.74959810
   0.24901680  0.24482035  1.00177577
   0.26304296  0.25617217  0.49875828
   0.25257440  0.74339448 -0.00513317
   0.25402297  0.75198031  0.49457810
   0.75305689  0.25329360 -0.00012167
   0.75025938  0.24540738  0.49881819
   0.75332895  0.74716935  1.00164608
   0.75403896  0.76454934  0.50211191
   0.25103610  0.99687484  0.25431441
   0.25720667 -0.00254330  0.75016081
   0.25847461  0.49682020  0.25796076
   0.24516285  0.50097809  0.74980779
   0.74812048  0.00288354  0.23665737
   0.75780154  1.00089772  0.75659620
   0.76038279  0.49872704  0.24091422
   0.75549789  0.49895181  0.74597882
   1.00666685  0.25618850  0.25217112
   0.00815454  0.24595448  0.75206253
  -0.00079592  0.74379470  0.25112418
   1.00560871  0.75080222  0.74769598
   0.49805164  0.25017276  0.24457481
   0.50480175  0.24134189  0.75913823
   0.50396852  0.73680033  0.24048674
   0.50057258  0.75080723  0.74750115
Direct configuration=    10
   0.99330369  0.99538739 -0.00502856
   0.50338690  0.50461785 -0.00048896
  -0.00029307  0.49633724  0.49822671
   0.49728699  1.00119490  0.49894790
   1.00226461  0.99834596  0.50349498
   1.00398551  0.50167722  0.99305306
   0.49637141  1.00277359  0.00936140
   0.50186592  0.50079109  0.49558795
   0.24853389  0.24512481  0.25378367
   0.25354696  0.24916356  0.75413544
   0.25173533  0.74297320  0.25132712
   0.24828703  0.74952883  0.75074538
   0.74500691  0.24958373  0.25767975
   0.74328609  0.25723871  0.75386579
   0.75632623  0.74623053  0.25021067
   0.74346559  0.75871211  0.74937592
   0.24731820  0.24492764  1.00276611
   0.26580910  0.25890779  0.50022193
   0.25299407  0.74323938 -0.00561295
   0.25454915  0.75200225  0.49445034
   0.75349827  0.25352620 -0.00074112
   0.74961450  0.24547590  0.49914849
   0.75547583  0.74732703  1.00200775
   0.75527423  0.76530664  0.50188815
   0.25126720  0.99703206  0.25405499
   0.25876892 -0.00339803  0.75030752
   0.25893143  0.49516316  0.25902682
   0.24544155  0.49956860  0.75011429
   0.74751697  0.00205508  0.23493085
   0.75932036  1.00101240  0.75783255
   0.76155217  0.50081667  0.24035486
   0.75579700  0.49872706  0.74388335
   1.00734799  0.25700217  0.25254924
   0.00809797  0.24636689  0.75273887
  -0.00148912  0.74336232  0.25037622
   1.00548284  0.75022242  0.74735612
   0.50014676  0.25012591  0.24416354
   0.50696679  0.23895348  0.75891062
   0.50543811  0.73558456  0.24120712
   0.50184674  0.75076371  0.74791903
Direct configuration=    11
   0.99304436  0.99468737 -0.00554015
   0.50372922  0.50541441 -0.00053198
  -0.00036073  0.49597015  0.49805330
   0.49700209  1.00104559  0.49846294
   1.00254371  0.99774624  0.50400257
   1.00398760  0.50131351  0.99129090
   0.49588727  1.00310370  0.01092127
   0.50237240  0.50091091  0.49542624
   0.24821530  0.24456659  0.25374290
   0.25219693  0.24892078  0.75464756
   0.25216805  0.74210837  0.25200027
   0.24844742  0.74940852  0.75214319
   0.74498867  0.24935324  0.25881607
   0.74322037  0.25788399  0.75491685
   0.75654451  0.74543570  0.25082711
   0.74282916  0.76102847  0.74947144
   0.24545617  0.24474176  1.00285891
   0.26818259  0.26223074  0.50307786
   0.25308047  0.74322368 -0.00527901
   0.25507647  0.75232643  0.49465073
   0.75369798  0.25398162 -0.00194154
   0.74901401  0.24586505  0.49971800
   0.75683928  0.74763798  1.00206841
   0.75581456  0.76612483  0.50168838
   0.25171051  0.99656526  0.25329906
   0.25995809 -0.00369093  0.75080287
   0.25949453  0.49395769  0.25906177
   0.24549967  0.49845642  0.75030137
   0.74680498  0.00119350  0.23362061
   0.76046013  1.00120242  0.75814278
   0.76312616  0.50201673  0.24072228
   0.75480456  0.49913911  0.74177462
   1.00683634  0.25774860  0.25261518
   0.00813544  0.24661304  0.75215914
  -0.00137993  0.74327061  0.25019156
   1.00523776  0.74951455  0.74717168
   0.50263706  0.25063769  0.24363008
   0.50809758  0.23725280  0.75848101
   0.50620625  0.73432122  0.24219242
   0.50270902  0.75133984  0.74801144
Direct configuration=    12
   0.99292991  0.99415526 -0.00600440
   0.50367215  0.50644482 -0.00064768
  -0.00040316  0.49545241  0.49780929
   0.49653979  1.00099944  0.49792377
   1.00300124  0.99749328  0.50475514
   1.00410046  0.50084626  0.98982037
   0.49552052  1.00368483  0.01236939
   0.50307837  0.50133561  0.49498554
   0.24784742  0.24377565  0.25405339
   0.25018499  0.24858086  0.75557338
   0.25277113  0.74154088  0.25260562
   0.24834131  0.74934807  0.75292674
   0.74547041  0.24892019  0.25938676
   0.74347827  0.25845284  0.75652348
   0.75652952  0.74506733  0.25161636
   0.74262779  0.76321674  0.74994272
   0.24374730  0.24484874  1.00257743
   0.27047707  0.26561347  0.50563476
   0.25344913  0.74425074 -0.00496227
   0.25512735  0.75273793  0.49550962
   0.75374395  0.25406903 -0.00318114
   0.74844530  0.24606495  0.50003128
   0.75757491  0.74778864  1.00103882
   0.75584319  0.76638183  0.50166069
   0.25205269  0.99563767  0.25241035
   0.26082516 -0.00411722  0.75147798
   0.25976418  0.49323430  0.25788474
   0.24601085  0.49679130  0.74948735
   0.74755463  0.00105273  0.23233011
   0.76099340  1.00191449  0.75809903
   0.76519608  0.50250163  0.24196420
   0.75359874  0.49953966  0.73977743
   1.00594352  0.25761658  0.25248302
   0.00823713  0.24684070  0.75135471
  -0.00040833  0.74375729  0.25030797
   1.00489472  0.74863368  0.74691635
   0.50648177  0.25125418  0.24313574
   0.50790090  0.23617026  0.75903693
   0.50707981  0.73262752  0.24418634
   0.50298878  0.75219801  0.74775688
Direct configuration=    13
   0.99293025  0.99338007 -0.00628934
   0.50375446  0.50737833 -0.00060741
  -0.00057815  0.49505418  0.49783950
   0.49589111  1.00121987  0.49738039
   1.00372061  0.99714287  0.50562038
   1.00420812  0.50010211  0.98860779
   0.49565687  1.00427068  0.01374648
   0.50386632  0.50203635  0.49456965
   0.24689734  0.24269775  0.25432309
   0.24845835  0.24819840  0.75615359
   0.25347113  0.74095385  0.25306372
   0.24826910  0.74915337  0.75330022
   0.74589205  0.24866437  0.25969567
   0.74399989  0.25919625  0.75844001
   0.75626653  0.74542078  0.25232251
   0.74289483  0.76533281  0.75033146
   0.24198911  0.24531099  1.00218202
   0.27214264  0.26780759  0.50720818
   0.25385913  0.74591764 -0.00378841
   0.25574766  0.75207086  0.49628849
   0.75292154  0.25460716 -0.00453061
   0.74850544  0.24642054  0.50001533
   0.75875308  0.74779504  0.99954673
   0.75606734  0.76594925  0.50062178
   0.25281697  0.99458529  0.25131197
   0.26161062 -0.00350885  0.75136177
   0.26037315  0.49275278  0.25739648
   0.24646413  0.49561144  0.74836491
   0.74838800  0.00058404  0.23101263
   0.76123047  1.00254164  0.75775722
   0.76723830  0.50280982  0.24367984
   0.75233806  0.50101146  0.73725775
   1.00463340  0.25739200  0.25239607
   0.00813097  0.24705098  0.74906932
   0.00138628  0.74412415  0.25108016
   1.00443401  0.74749136  0.74611971
   0.50941144  0.25227123  0.24218345
   0.50665068  0.23597301  0.75944842
   0.50778672  0.73170908  0.24727542
   0.50348494  0.75236484  0.74744375
Direct configuration=    14
   0.99317378  0.99270707 -0.00625122
   0.50359300  0.50817017 -0.00034407
  -0.00048477  0.49453361  0.49818019
   0.49510455  1.00138578  0.49673179
   1.00461691  0.99675610  0.50637015
   1.00461278  0.49935287  0.98745726
   0.49603135  1.00479127  0.01495600
   0.50448012  0.50275155  0.49388353
   0.24583095  0.24217618  0.25415094
   0.24637444  0.24790833  0.75681077
   0.25407764  0.74027645  0.25345249
   0.24874567  0.74867593  0.75323295
   0.74661304  0.24872841  0.25969902
   0.74453543  0.25953782  0.76053275
   0.75597177  0.74575758  0.25283430
   0.74375616  0.76718436  0.75088360
   0.24046182  0.24542439  1.00202857
   0.27317901  0.26920563  0.50814820
   0.25503729  0.74825701 -0.00239196
   0.25587666  0.75126651  0.49605984
   0.75247279  0.25554475 -0.00616378
   0.74846408  0.24635211  0.49916933
   0.75958712  0.74796171  0.99855350
   0.75716189  0.76604457  0.49889385
   0.25446068  0.99469584  0.25065395
   0.26187506 -0.00242603  0.75138522
   0.26020422  0.49301291  0.25757767
   0.24751793  0.49576132  0.74700967
   0.74882845  0.00071165  0.23004585
   0.76055287  1.00325139  0.75751728
   0.76855124  0.50323255  0.24646921
   0.75070803  0.50127448  0.73526864
   1.00318348  0.25657287  0.25306791
   0.00806707  0.24799354  0.74647921
   0.00370138  0.74464043  0.25140405
   1.00455578  0.74637320  0.74494003
   0.51234242  0.25338270  0.24197014
   0.50440377  0.23565205  0.75925704
   0.50836793  0.73110847  0.25046506
   0.50347756  0.75237021  0.74753235
Direct configuration=    15
   0.99391571  0.99189286 -0.00625074
   0.50347634  0.50891079 -0.00017417
  -0.00052565  0.49390340  0.49881112
   0.49446268  1.00162265  0.49635199
   1.00525244  0.99627334  0.50705231
   1.00488119  0.49854949  0.98606988
   0.49629990  1.00525932  0.01580167
   0.50532151  0.50356250  0.49318130
   0.24486942  0.24221385  0.25380237
   0.24362771  0.24793307  0.75730101
   0.25459358  0.74036317  0.25416283
   0.24917172  0.74818590  0.75327814
   0.74737090  0.24904155  0.25927238
   0.74494783  0.25996753  0.76274639
   0.75560269  0.74617120  0.25319183
   0.74452065  0.76933169  0.75184471
   0.23976990  0.24550992  1.00247488
   0.27368912  0.26935487  0.50874825
   0.25658444  0.75020380 -0.00058473
   0.25568453  0.75110925  0.49517577
   0.75289170  0.25672225 -0.00749478
   0.74801928  0.24640613  0.49835962
   0.75940287  0.74786613  0.99745887
   0.75819023  0.76640051  0.49742322
   0.25690529  0.99528466  0.25013157
   0.26150289 -0.00164991  0.75067399
   0.25938180  0.49317013  0.25679460
   0.24899911  0.49739682  0.74498402
   0.74963067  0.00095160  0.22917605
   0.75923099  1.00414896  0.75700365
   0.76975334  0.50271046  0.24960464
   0.74833993  0.50149481  0.73352177
   1.00183514  0.25472826  0.25354927
   0.00773909  0.24906152  0.74422795
   0.00669411  0.74601686  0.25165468
   1.00562008  0.74570481  0.74379427
   0.51463733  0.25369375  0.24125403
   0.50167007  0.23583439  0.75995378
   0.50896226  0.73081222  0.25409146
   0.50361747  0.75230555  0.74762164
Direct configuration=    16
   0.99461817  0.99106915 -0.00594357
   0.50328807  0.50960425  0.00008392
  -0.00044359  0.49332169  0.49923685
   0.49387287  1.00163897  0.49601070
   1.00581931  0.99568629  0.50813030
   1.00519769  0.49772513  0.98480259
   0.49682995  1.00551607  0.01638214
   0.50602741  0.50430023  0.49249316
   0.24395990  0.24268009  0.25337335
   0.24089269  0.24859635  0.75749964
   0.25513765  0.74076397  0.25487988
   0.24962138  0.74761696  0.75323910
   0.74812800  0.24926928  0.25891014
   0.74519439  0.26014286  0.76438216
   0.75518989  0.74638243  0.25326299
   0.74580366  0.77153784  0.75267058
   0.23935210  0.24588147  1.00445141
   0.27341907  0.26890476  0.50873339
   0.25785744  0.75187400  0.00083150
   0.25482778  0.75108791  0.49485815
   0.75465362  0.25907812 -0.00827580
   0.74867622  0.24601698  0.49805853
   0.75979466  0.74766718  0.99627806
   0.75880782  0.76627634  0.49640131
   0.25892278  0.99761617  0.24932596
   0.26135231 -0.00170872  0.74984536
   0.25896916  0.49362473  0.25498513
   0.24983024  0.49990052  0.74372672
   0.75062396  0.00109674  0.22861563
   0.75769668  1.00548773  0.75595292
   0.77087914  0.50193855  0.25249899
   0.74573977  0.50162017  0.73235719
   1.00161379  0.25164517  0.25400774
   0.00664709  0.24973258  0.74203493
   0.00969090  0.74693162  0.25125982
   1.00778677  0.74555023  0.74292585
   0.51549832  0.25394390  0.24089749
   0.49884562  0.23595183  0.76096964
   0.50859381  0.73113256  0.25695407
   0.50324460  0.75119686  0.74694556
Direct configuration=    17
   0.99532418  0.99027189 -0.00553133
   0.50309478  0.51049668  0.00048640
  -0.00033026  0.49256005  0.49980786
   0.49375941  1.00154155  0.49550126
   1.00667805  0.99470297  0.50896745
   1.00542781  0.49708226  0.98348150
   0.49747937  1.00567789  0.01707136
   0.50743678  0.50489116  0.49200204
   0.24321676  0.24339354  0.25337897
   0.23875923  0.24933261  0.75726185
   0.25530280  0.74117183  0.25544721
   0.25012061  0.74735261  0.75257742
   0.74919845  0.24943707  0.25902426
   0.74530139  0.26030346  0.76559826
   0.75501054  0.74668800  0.25347426
   0.74716333  0.77351156  0.75331994
   0.23922635  0.24672572  1.00704181
   0.27327235  0.26668285  0.50814654
   0.25868005  0.75446541  0.00292642
   0.25418097  0.75119880  0.49463617
   0.75658930  0.26182973 -0.00809001
   0.74895255  0.24543245  0.49751697
   0.75956774  0.74663295  0.99485316
   0.75891853  0.76603195  0.49570326
   0.26034079  0.99998889  0.24871850
   0.26116997 -0.00170458  0.74879436
   0.25849056  0.49395674  0.25292685
   0.25066330  0.50267077  0.74372114
   0.75087598  0.00086306  0.22807401
   0.75699968  1.00663869  0.75481712
   0.77116223  0.50094868  0.25480507
   0.74373290  0.50212539  0.73112343
   1.00252420  0.24755956  0.25436418
   0.00475766  0.25026398  0.74073246
   0.01319527  0.74751077  0.25085027
   1.00932819  0.74546354  0.74293074
   0.51499104  0.25436645  0.24053435
   0.49695710  0.23628392  0.76160951
   0.50803958  0.73102671  0.25934688
   0.50317836  0.75051198  0.74645906
Direct configuration=    18
   0.99605852  0.98953690 -0.00490894
   0.50277392  0.51137148  0.00107263
  -0.00025667  0.49183594  0.50026228
   0.49379305  1.00146880  0.49489385
   1.00747439  0.99431544  0.50966102
   1.00551451  0.49695485  0.98251004
   0.49812663  1.00609569  0.01784686
   0.50872739  0.50572310  0.49152729
   0.24277335  0.24445087  0.25336082
   0.23737530  0.25015315  0.75691756
   0.25582278  0.74173801  0.25611998
   0.25074176  0.74746952  0.75184784
   0.75021968  0.24931233  0.25948701
   0.74563252  0.26057161  0.76620771
   0.75479033  0.74706288  0.25408769
   0.74818098  0.77566540  0.75429023
   0.23868859  0.24817981  1.00877525
   0.27280218  0.26399504  0.50798373
   0.25875249  0.75687955  0.00467049
   0.25321141  0.75152402  0.49526064
   0.75860640  0.26427942 -0.00726004
   0.74912588  0.24470152  0.49625565
   0.75877886  0.74566055  0.99272485
   0.75926292  0.76527207  0.49469135
   0.26241882  1.00243335  0.24852998
   0.26011572 -0.00123159  0.74705740
   0.25825521  0.49441770  0.25090891
   0.25113350  0.50460608  0.74418434
   0.75117041  0.00105282  0.22762907
   0.75664981  1.00790110  0.75334822
   0.77146036  0.49983745  0.25645133
   0.74180381  0.50211525  0.73022992
   1.00392767  0.24330139  0.25523714
   0.00214603  0.25054296  0.73905333
   0.01505150  0.74839348  0.25013845
   1.01006510  0.74568881  0.74377378
   0.51346106  0.25448216  0.23987702
   0.49617357  0.23658139  0.76251979
   0.50833527  0.73150289  0.26245851
   0.50362975  0.74983530  0.74530475
Direct configuration=    19
   0.99692582  0.98878988 -0.00440113
   0.50227200  0.51253340  0.00155369
  -0.00026414  0.49122179  0.50083285
   0.49387718  1.00151460  0.49470892
   1.00803432  0.99372606  0.51047492
   1.00568113  0.49701803  0.98164484
   0.49847548  1.00636424  0.01850897
   0.51008770  0.50662273  0.49146734
   0.24208076  0.24558393  0.25332149
   0.23670935  0.25093436  0.75645688
   0.25630923  0.74242820  0.25615905
   0.25151341  0.74830477  0.75111796
   0.75086493  0.24917545  0.25974568
   0.74542283  0.26047853  0.76634054
   0.75443967  0.74756972  0.25472368
   0.74906853  0.77722548  0.75493739
   0.23802359  0.24968262  1.00951162
   0.27194790  0.26158435  0.50774518
   0.25890628  0.75824244  0.00547203
   0.25163278  0.75217565  0.49538556
   0.76161324  0.26617153 -0.00631185
   0.74919606  0.24381095  0.49494782
   0.75775051  0.74535136  0.99101136
   0.76042794  0.76466358  0.49390483
   0.26474957  1.00557703  0.24788149
   0.25817344 -0.00034379  0.74607508
   0.25843222  0.49575156  0.24845157
   0.25108370  0.50612637  0.74685019
   0.75111906  0.00082163  0.22766950