unknown system                          
           1
     8.035966    0.000000    0.000000
     0.000000    7.815868    0.000000
     0.000000    0.000000    7.815956
   Ba   Sr   Ti   O 
     4     4     8    24
Direct configuration=     1
   0.99571072  0.00000237  0.99998554
   0.49573254  0.49999706  0.00001317
   0.99571083  0.49999763  0.50001452
   0.49573255  0.00000295  0.49998673
   0.99107000  0.00002539  0.50003928
   0.99106986  0.49997464  0.99996096
   0.49106803  0.00002594  0.00003801
   0.49106871  0.49997406  0.49996165
   0.23968923  0.25000004  0.25000000
   0.23973715  0.25000006  0.74999996
   0.23977086  0.74999999  0.25000000
   0.23978592  0.74999994  0.74999994
   0.73971127  0.24999999  0.24999999
   0.73969947  0.25000001  0.75000001
   0.73979016  0.75000003  0.24999998
   0.73974894  0.74999998  0.74999998
   0.25368180  0.24913678  0.00001297
   0.25368173  0.25086309  0.49998704
   0.25392026  0.75092779  0.00001370
   0.25392022  0.74907223  0.49998629
   0.75369438  0.25086285  0.99998600
   0.75369424  0.24913728  0.50001406
   0.75393148  0.74907274  0.99998699
   0.75393140  0.75092722  0.50001303
   0.25378264  0.00000532  0.24910563
   0.25382228  0.00000595  0.75089795
   0.25378267  0.49999466  0.25089438
   0.25382235  0.49999401  0.74910203
   0.75383774  0.00000496  0.25089828
   0.75379108  0.00000604  0.74910675
   0.75383761  0.49999507  0.24910188
   0.75379100  0.49999398  0.75089323
   0.00468451  0.25000004  0.25000000
   0.00470690  0.24999999  0.75000000
   0.00479453  0.74999997  0.24999998
   0.00483578  0.75000001  0.74999997
   0.50469961  0.25000000  0.25000002
   0.50466098  0.24999990  0.75000008
   0.50481042  0.75000001  0.25000002
   0.50478814  0.75000005  0.75000002
Direct configuration=     2
   0.99589347 -0.00002539  0.99990936
   0.49554932  0.50001491 -0.00005294
   0.99598112  0.49989801  0.50000124
   0.49573755 -0.00007456  0.49995606
   0.99108996  0.00002475  0.50008877
   0.99114773  0.49984793  0.99995560
   0.49115309  0.00019030 -0.00014327
   0.49100454  0.49987591  0.50000957
   0.23977271  0.25013874  0.25011735
   0.23954018  0.24978452  0.74996639
   0.23950005  0.74991354  0.24983450
   0.23993957  0.74964764  0.75013017
   0.73964002  0.24987518  0.24978835
   0.73974371  0.25019836  0.74983827
   0.73975966  0.75018306  0.24963996
   0.73976166  0.75007266  0.74999583
   0.25330170  0.24932149 -0.00011738
   0.25373691  0.25123057  0.50040650
   0.25378531  0.75078916  0.00003869
   0.25385095  0.74901088  0.50030966
   0.75297133  0.25103445  1.00006644
   0.75394783  0.24943448  0.50014489
   0.75391526  0.74895649  0.99995456
   0.75374403  0.75076161  0.50035511
   0.25384375  0.00005851  0.24899596
   0.25355591  0.00034839  0.75101678
   0.25387800  0.50006513  0.25103002
   0.25367066  0.49996337  0.74860527
   0.75366639  0.00017442  0.25109519
   0.75347448 -0.00022126  0.74891171
   0.75388432  0.49983020  0.24933246
   0.75383239  0.49999379  0.75127050
   0.00467816  0.24999832  0.24982262
   0.00452430  0.25024802  0.74983305
   0.00472867  0.74999996  0.25023503
   0.00484072  0.74987227  0.75011453
   0.50445495  0.24973481  0.25007030
   0.50503612  0.25067044  0.74991716
   0.50501051  0.75007352  0.24997240
   0.50465181  0.75011885  0.74990106
Direct configuration=     3
   0.99611022 -0.00003631  0.99992020
   0.49532425  0.49997351 -0.00008616
   0.99617246  0.49979057  0.50012691
   0.49595129 -0.00025915  0.49991947
   0.99107199  0.00007977  0.50000843
   0.99114300  0.49965927  1.00010398
   0.49140432  0.00033301 -0.00039406
   0.49091130  0.49975992  0.50022517
   0.23977553  0.25032235  0.25018080
   0.23922600  0.24961503  0.74989437
   0.23925940  0.74980368  0.24987803
   0.24018160  0.74934562  0.75017112
   0.73956961  0.24994326  0.24950666
   0.73985620  0.25040693  0.74962193
   0.73993607  0.75012678  0.24942752
   0.73987320  0.75010693  0.75003971
   0.25293119  0.24923427 -0.00031422
   0.25389747  0.25169713  0.50075370
   0.25408728  0.75027286  0.00005129
   0.25374698  0.74830882  0.50082526
   0.75216178  0.25111565  0.99940801
   0.75404244  0.24968365  0.50046364
   0.75398499  0.74900712  1.00018043
   0.75370727  0.75076988  0.50043999
   0.25400742  0.00021685  0.24933262
   0.25350735  0.00072076  0.75121427
   0.25402060  0.50020498  0.25108720
   0.25344155  0.49992442  0.74798410
   0.75388352  0.00007508  0.25118093
   0.75278254 -0.00028154  0.74887064
   0.75368625  0.49994605  0.24978373
   0.75419675  0.49979928  0.75137474
   0.00504637  0.25013856  0.24959558
   0.00454858  0.25021799  0.74949156
   0.00502817  0.75013532  0.25091129
   0.00515066  0.75011614  0.75058146
   0.50425679  0.24932401  0.25070719
   0.50551096  0.25131434  0.74952985
   0.50518058  0.75001284  0.25042706
   0.50435276  0.75033481  0.74983540
Direct configuration=     4
   0.99630119 -0.00006980  0.99988495
   0.49511668  0.49992585 -0.00022169
   0.99637455  0.49983821  0.50029289
   0.49615386 -0.00039245  0.49986930
   0.99084201  0.00010065  0.49997930
   0.99087216  0.49944345  1.00042055
   0.49171541  0.00045416 -0.00052232
   0.49087075  0.49953853  0.50034441
   0.23985758  0.25060574  0.25021717
   0.23871739  0.24929953  0.74959424
   0.23911760  0.74976307  0.24977077
   0.24046065  0.74913672  0.75003829
   0.73960921  0.25018225  0.24948362
   0.74021836  0.25060442  0.74939972
   0.74011311  0.75020695  0.24919541
   0.74002325  0.75045766  0.75006444
   0.25209210  0.24902517 -0.00036506
   0.25408087  0.25155898  0.50087820
   0.25414849  0.75024384  0.00016799
   0.25343940  0.74813932  0.50143509
   0.75202745  0.25106963  0.99924916
   0.75394882  0.24981980  0.50077982
   0.75404523  0.74950072  1.00029924
   0.75397093  0.75120848  0.50061054
   0.25410149  0.00071691  0.24971189
   0.25338016  0.00118237  0.75097112
   0.25468027  0.50060521  0.25106463
   0.25315662  0.49986082  0.74730439
   0.75372151 -0.00027678  0.25108192
   0.75245776 -0.00038358  0.74932381
   0.75340136  0.50012191  0.25045841
   0.75445203  0.49968092  0.75135267
   0.00567939  0.24980399  0.24958062
   0.00437017  0.25059694  0.74890605
   0.00522365  0.74977815  0.25106701
   0.00508992  0.75058452  0.75092224
   0.50408946  0.24896432  0.25091735
   0.50598222  0.25181014  0.74935394
   0.50511330  0.74979429  0.25100483
   0.50447267  0.75050420  0.74945704
Direct configuration=     5
   0.99644029 -0.00008731  0.99990374
   0.49488984  0.49992382 -0.00036233
   0.99662723  0.49985754  0.50024466
   0.49634765 -0.00055715  0.49979566
   0.99061837  0.00011725  0.49999272
   0.99070713  0.49913631  1.00073118
   0.49194938  0.00036298 -0.00057352
   0.49091492  0.49947402  0.50036988
   0.23975461  0.25075829  0.25031508
   0.23856136  0.24906215  0.74938532
   0.23928801  0.74956342  0.24977705
   0.24089743  0.74886141  0.74995583
   0.73924831  0.25044599  0.24936595
   0.74064621  0.25061914  0.74909088
   0.74015433  0.75046221  0.24904235
   0.74011698  0.75067363  0.74994578
   0.25136771  0.24922268 -0.00031310
   0.25399239  0.25148762  0.50115927
   0.25423038  0.74999637  0.00043155
   0.25342371  0.74793197  0.50180091
   0.75187553  0.25123628  0.99942546
   0.75368787  0.24988829  0.50105292
   0.75384100  0.75022564  1.00044890
   0.75443409  0.75180748  0.50056153
   0.25435078  0.00101146  0.24991258
   0.25345725  0.00162802  0.75057248
   0.25514175  0.50072329  0.25112144
   0.25309109  0.50010706  0.74644967
   0.75415270 -0.00060413  0.25102289
   0.75193419 -0.00084461  0.74990044
   0.75299126  0.50037259  0.25078477
   0.75466921  0.49952924  0.75130445
   0.00578481  0.24986041  0.24996659
   0.00397910  0.25074429  0.74844950
   0.00498401  0.74973633  0.25165722
   0.00541809  0.75058357  0.75100118
   0.50371324  0.24855898  0.25142961
   0.50647952  0.25277417  0.74897596
   0.50499346  0.74975981  0.25134873
   0.50486004  0.75046925  0.74926302
Direct configuration=     6
   0.99671322 -0.00004726  1.00003511
   0.49473536  0.49989397 -0.00048332
   0.99695926  0.49967835  0.50027637
   0.49644508 -0.00069573  0.49975984
   0.99041250  0.00011477  0.49982311
   0.99060029  0.49865435  1.00104548
   0.49202550  0.00020398 -0.00077465
   0.49083885  0.49947804  0.50051972
   0.23954679  0.25066073  0.25074774
   0.23852774  0.24880555  0.74908201
   0.23935443  0.74977685  0.24971295
   0.24119986  0.74864805  0.74983913
   0.73853716  0.25062029  0.24924289
   0.74109586  0.25057271  0.74865606
   0.74021523  0.75067244  0.24869572
   0.74016517  0.75084660  0.74978629
   0.25068593  0.24959623 -0.00045334
   0.25389364  0.25106054  0.50158085
   0.25445412  0.74973977  0.00096722
   0.25390996  0.74754440  0.50165262
   0.75163048  0.25129656  0.99995929
   0.75387558  0.24971713  0.50125907
   0.75380060  0.75092990  1.00011217
   0.75469488  0.75191588  0.50043241
   0.25424663  0.00071921  0.24984961
   0.25337728  0.00201413  0.75080263
   0.25546225  0.50042104  0.25087472
   0.25294005  0.50040340  0.74574000
   0.75442495 -0.00046707  0.25088353
   0.75146813 -0.00118966  0.75009569
   0.75236055  0.50080111  0.25093365
   0.75497162  0.49967733  0.75155411
   0.00591701  0.25005537  0.25098355
   0.00346685  0.25078995  0.74777517
   0.00454678  0.74940758  0.25202351
   0.00542681  0.75063436  0.75128118
   0.50352111  0.24831134  0.25186169
   0.50694172  0.25367430  0.74866820
   0.50499230  0.74994663  0.25187200
   0.50514546  0.75047540  0.74884178
Direct configuration=     7
   0.99692786 -0.00011535  1.00007928
   0.49460220  0.49982358 -0.00062078
   0.99726699  0.49964144  0.50027438
   0.49651166 -0.00083689  0.49969464
   0.99019161  0.00000026  0.49968813
   0.99049589  0.49791598  1.00137431
   0.49202081  0.00008912 -0.00098626
   0.49083219  0.49956169  0.50082169
   0.23938470  0.25019678  0.25145818
   0.23848517  0.24854470  0.74892984
   0.23941318  0.74997213  0.24960185
   0.24185247  0.74820521  0.74969314
   0.73786123  0.25086460  0.24906379
   0.74140911  0.25048745  0.74810760
   0.74026755  0.75100688  0.24826032
   0.74019075  0.75065048  0.74948290
   0.24976790  0.24996253 -0.00017266
   0.25386608  0.25094407  0.50168267
   0.25471078  0.74975280  0.00167934
   0.25446437  0.74717626  0.50111612
   0.75120778  0.25175134  1.00084228
   0.75384558  0.24948348  0.50149383
   0.75402206  0.75137596  1.00014161
   0.75465320  0.75230389  0.50013219
   0.25401461  0.00022578  0.24986120
   0.25347900  0.00214887  0.75088998
   0.25552214  0.50000928  0.25024480
   0.25304065  0.50061078  0.74517311
   0.75436982 -0.00044381  0.25108851
   0.75090496 -0.00182194  0.75018806
   0.75197408  0.50102843  0.25112443
   0.75554080  0.50043169  0.75231433
   0.00635149  0.25025081  0.25198558
   0.00326122  0.25047567  0.74726977
   0.00399051  0.74846992  0.25268737
   0.00557015  0.75041214  0.75130605
   0.50337932  0.24760787  0.25222135
   0.50757244  0.25427059  0.74867415
   0.50480938  0.75049202  0.25224515
   0.50529907  0.75048822  0.74835918
Direct configuration=     8
   0.99718934 -0.00011307  1.00003628
   0.49438015  0.49969210 -0.00067967
   0.99762948  0.49979424  0.50032734
   0.49655320 -0.00081601  0.49965844
   0.99003620 -0.00022358  0.49966992
   0.99048776  0.49697794  1.00162472
   0.49200316  0.00018030 -0.00112759
   0.49099317  0.49948335  0.50110852
   0.23913464  0.24991594  0.25206297
   0.23835374  0.24821139  0.74907780
   0.23966050  0.75021321  0.24959832
   0.24247746  0.74771448  0.74962911
   0.73728276  0.25103842  0.24892675
   0.74171107  0.25031276  0.74775995
   0.74038323  0.75144353  0.24788293
   0.74036285  0.75050303  0.74925280
   0.24903508  0.25012527 -0.00007897
   0.25394130  0.25100364  0.50178200
   0.25485301  0.74961408  0.00237437
   0.25512102  0.74740834  0.50073361
   0.75071671  0.25185203  1.00218633
   0.75355882  0.24965349  0.50122444
   0.75390338  0.75200296  0.99999557
   0.75444027  0.75330435  0.50005350
   0.25373473 -0.00010472  0.24984862
   0.25329029  0.00251453  0.75118021
   0.25530991  0.49927642  0.25006719
   0.25353788  0.50082672  0.74533653
   0.75435540 -0.00009664  0.25144631
   0.75016665 -0.00254937  0.75026402
   0.75129995  0.50090934  0.25151761
   0.75616339  0.50095383  0.75351974
   0.00628372  0.25032491  0.25296724
   0.00329597  0.25018860  0.74688816
   0.00349049  0.74756935  0.25277232
   0.00596823  0.75002388  0.75172686
   0.50385664  0.24696504  0.25209733
   0.50802875  0.25489131  0.74836967
   0.50460901  0.75066657  0.25241700
   0.50562413  0.75037174  0.74786718
Direct configuration=     9
   0.99740737 -0.00003430  1.00001937
   0.49408415  0.49945593 -0.00069226
   0.99787367  0.50000649  0.50045667
   0.49667049 -0.00090438  0.49967506
   0.99013900 -0.00045916  0.49962902
   0.99039236  0.49596201  1.00204709
   0.49200453  0.00023309 -0.00141521
   0.49082089  0.49938575  0.50140879
   0.23886705  0.24965013  0.25257782
   0.23828500  0.24809976  0.74878069
   0.23990840  0.75040572  0.24964228
   0.24311902  0.74712023  0.74932179
   0.73667464  0.25109874  0.24882062
   0.74204317  0.25019928  0.74733775
   0.74045808  0.75170866  0.24737006
   0.74045116  0.75021659  0.74888630
   0.24866313  0.25043085 -0.00042190
   0.25445681  0.25137235  0.50176739
   0.25530439  0.74945505  0.00296669
   0.25580472  0.74797729  0.50035950
   0.75048367  0.25173252  1.00329551
   0.75363250  0.24984942  0.50037236
   0.75390409  0.75253236  0.99977702
   0.75459218  0.75438704  0.50044476
   0.25353212 -0.00053781  0.24954392
   0.25339133  0.00260617  0.75129965
   0.25461104  0.49795959  0.24986375
   0.25359342  0.50096702  0.74562204
   0.75445587  0.00044064  0.25168682
   0.75018479 -0.00266543  0.75071971
   0.75072539  0.50007325  0.25219529
   0.75678290  0.50138438  0.75507877
   0.00569701  0.25064794  0.25398575
   0.00339914  0.24966353  0.74624516
   0.00270687  0.74663416  0.25246362
   0.00655257  0.74964026  0.75216849
   0.50383767  0.24677732  0.25190252
   0.50818675  0.25566442  0.74807063
   0.50437120  0.75100301  0.25227357
   0.50559089  0.75023864  0.74756412
Direct configuration=    10
   0.99767879  0.00010210  0.99996142
   0.49382013  0.49926847 -0.00054356
   0.99797092  0.50025483  0.50057989
   0.49674560 -0.00087163  0.49964129
   0.99033208 -0.00060198  0.49960591
   0.99024345  0.49490789  1.00253595
   0.49224492  0.00032548 -0.00155945
   0.49056800  0.49932792  0.50162901
   0.23872106  0.24949370  0.25290725
   0.23828284  0.24821357  0.74878981
   0.24009029  0.75033852  0.25004977
   0.24369702  0.74640953  0.74897044
   0.73593270  0.25130767  0.24889969
   0.74237572  0.25026459  0.74738676
   0.74038764  0.75216125  0.24679533
   0.74075485  0.74985548  0.74849722
   0.24792665  0.25086500 -0.00098263
   0.25441646  0.25182224  0.50151173
   0.25553743  0.74901634  0.00354851
   0.25660037  0.74882645  0.50030579
   0.75019348  0.25132813  1.00414390
   0.75364268  0.25032297  0.49943979
   0.75380139  0.75308648  0.99964889
   0.75514174  0.75534639  0.50077028
   0.25381271 -0.00077953  0.24893240
   0.25315577  0.00249141  0.75135370
   0.25389208  0.49712460  0.25048667
   0.25398762  0.50120074  0.74659856
   0.75435978  0.00076347  0.25179923
   0.75037573 -0.00264934  0.75113980
   0.75011469  0.49951814  0.25243272
   0.75774595  0.50180892  0.75688630
   0.00469156  0.25119268  0.25472857
   0.00360735  0.24915742  0.74584555
   0.00188360  0.74561777  0.25207477
   0.00699018  0.74914775  0.75244546
   0.50393199  0.24657542  0.25162964
   0.50807725  0.25615839  0.74804261
   0.50430526  0.75100129  0.25185444
   0.50528936  0.74950733  0.74736552
Direct configuration=    11
   0.99794383  0.00025344  0.99994156
   0.49352689  0.49904630 -0.00023324
   0.99784954  0.50040354  0.50065715
   0.49681529 -0.00067607  0.49938077
   0.99060387 -0.00064739  0.49940593
   0.99008105  0.49388604  1.00301234
   0.49259330  0.00042227 -0.00191911
   0.49041101  0.49927427  0.50205131
   0.23874187  0.24945446  0.25320013
   0.23816999  0.24799905  0.74890818
   0.24028275  0.75014269  0.25052906
   0.24422193  0.74587469  0.74879932
   0.73525441  0.25147264  0.24928290
   0.74258337  0.25023709  0.74751107
   0.74047379  0.75262265  0.24641347
   0.74096298  0.74966916  0.74801968
   0.24746501  0.25132779 -0.00163371
   0.25446032  0.25212452  0.50138135
   0.25582790  0.74877552  0.00372358
   0.25694494  0.74967662  0.50020506
   0.75044188  0.25079863  1.00480221
   0.75339794  0.25098011  0.49881962
   0.75348392  0.75399555  0.99946574
   0.75562364  0.75618695  0.50056241
   0.25416236 -0.00092825  0.24902619
   0.25301482  0.00256777  0.75142412
   0.25290231  0.49612331  0.25081633
   0.25445778  0.50121164  0.74760126
   0.75438926  0.00149819  0.25193539
   0.75060848 -0.00205684  0.75125129
   0.74956088  0.49904260  0.25293723
   0.75869905  0.50214284  0.75809138
   0.00370042  0.25186408  0.25484933
   0.00369444  0.24865901  0.74576734
   0.00116941  0.74460389  0.25162269
   0.00720163  0.74876686  0.75220485
   0.50336369  0.24617726  0.25168240
   0.50796765  0.25599578  0.74911169
   0.50439754  0.75136390  0.25193331
   0.50455161  0.74864897  0.74744149
Direct configuration=    12
   0.99810703  0.00032124  1.00000006
   0.49330744  0.49894073 -0.00004677
   0.99768284  0.50054591  0.50063000
   0.49698593 -0.00043909  0.49913544
   0.99092161 -0.00086789  0.49925505
   0.98984972  0.49289396  1.00356348
   0.49298613  0.00046786 -0.00204960
   0.49030933  0.49922960  0.50228411
   0.23852776  0.24948085  0.25324857
   0.23791512  0.24765085  0.74933848
   0.24026253  0.74981677  0.25084480
   0.24465182  0.74539272  0.74900030
   0.73456921  0.25159854  0.24976387
   0.74254939  0.25006617  0.74775117
   0.74059550  0.75309299  0.24600390
   0.74132439  0.74968139  0.74763735
   0.24709999  0.25186282 -0.00173371
   0.25438276  0.25221096  0.50093747
   0.25662510  0.74872405  0.00356603
   0.25672796  0.75031270  0.49991628
   0.75107341  0.24976774  1.00488675
   0.75297655  0.25206206  0.49888411
   0.75268099  0.75443493  0.99967145
   0.75593388  0.75677593  0.50080976
   0.25436819 -0.00115177  0.24898352
   0.25305786  0.00238093  0.75125641
   0.25200414  0.49587833  0.25099334
   0.25562450  0.50136251  0.74899214
   0.75473992  0.00211069  0.25188523
   0.75046643 -0.00101453  0.75110890
   0.74885970  0.49903508  0.25325981
   0.75939345  0.50153297  0.75914838
   0.00264340  0.25213497  0.25518155
   0.00347079  0.24818366  0.74564323
   0.00101512  0.74402921  0.25114443
   0.00759382  0.74866010  0.75206890
   0.50255664  0.24582486  0.25155314
   0.50731178  0.25563653  0.75005657
   0.50426377  0.75163423  0.25223972
   0.50394814  0.74756202  0.74740513
Direct configuration=    13
   0.99826861  0.00040829  1.00027214
   0.49307772  0.49881891  0.00020908
   0.99756277  0.50066249  0.50057602
   0.49725141 -0.00036545  0.49901403
   0.99112902 -0.00104968  0.49922028
   0.98981314  0.49193454  1.00410111
   0.49342147  0.00073052 -0.00202442
   0.49003924  0.49916032  0.50260595
   0.23824465  0.24926805  0.25325711
   0.23790043  0.24733759  0.74999137
   0.24046762  0.74936104  0.25104846
   0.24496594  0.74484181  0.74912219
   0.73412877  0.25184968  0.25038559
   0.74257838  0.24997740  0.74804705
   0.74082596  0.75343230  0.24558089
   0.74180705  0.74963458  0.74721778
   0.24684293  0.25248158 -0.00197954
   0.25405423  0.25238299  0.50022532
   0.25714920  0.74878634  0.00337927
   0.25619869  0.75097874  0.49925971
   0.75248189  0.24872079  1.00485260
   0.75235606  0.25337972  0.49962602
   0.75214342  0.75513773  1.00022867
   0.75646321  0.75759360  0.50086914
   0.25473576 -0.00175181  0.24900000
   0.25298566  0.00203694  0.75125609
   0.25106265  0.49606238  0.25172037
   0.25669119  0.50127711  0.75031273
   0.75553450  0.00246903  0.25231069
   0.75072387 -0.00032655  0.75073939
   0.74803209  0.49914192  0.25356125
   0.75939778  0.50080675  0.75993853
   0.00178628  0.25228763  0.25598995
   0.00345558  0.24787560  0.74541634
   0.00067656  0.74329096  0.25114443
   0.00778773  0.74841717  0.75173154
   0.50125164  0.24578552  0.25123413
   0.50654131  0.25479702  0.75096790
   0.50391024  0.75162193  0.25265589
   0.50350555  0.74672529  0.74728182
Direct configuration=    14
   0.99851991  0.00051130  1.00052314
   0.49279539  0.49850843  0.00054804
   0.99745203  0.50080791  0.50053309
   0.49755022 -0.00021492  0.49901465
   0.99138027 -0.00115860  0.49913420
   0.98977981  0.49084800  1.00491731
   0.49385626  0.00083838 -0.00190323
   0.48987583  0.49920841  0.50283522
   0.23791448  0.24903689  0.25282354
   0.23801489  0.24709087  0.75054372
   0.24047225  0.74914255  0.25128629
   0.24505379  0.74458547  0.74902566
   0.73396636  0.25217686  0.25117537
   0.74244036  0.25003334  0.74831777
   0.74121963  0.75360125  0.24515390
   0.74213070  0.74954419  0.74680189
   0.24659518  0.25302335 -0.00213711
   0.25393186  0.25245388  0.49948338
   0.25733155  0.74896288  0.00266748
   0.25584049  0.75145460  0.49895764
   0.75364245  0.24731584  1.00410738
   0.75138302  0.25440832  0.50053449
   0.75159921  0.75549664  1.00069821
   0.75692663  0.75827189  0.50109178
   0.25512407 -0.00204046  0.24882693
   0.25292146  0.00195088  0.75092453
   0.25032784  0.49650566  0.25247280
   0.25751888  0.50058309  0.75128328
   0.75631457  0.00272483  0.25256675
   0.75111309  0.00014800  0.75043832
   0.74705839  0.49946911  0.25341610
   0.75934209  0.49969272  0.76038002
   0.00145123  0.25239432  0.25684232
   0.00333401  0.24763231  0.74568926
   0.00033803  0.74290693  0.25086125
   0.00802736  0.74849783  0.75147069
   0.49950565  0.24578787  0.25088146
   0.50605385  0.25363429  0.75180685
   0.50344409  0.75149203  0.25334413
   0.50326636  0.74579376  0.74720867
Direct configuration=    15
   0.99876943  0.00071104  1.00079783
   0.49262119  0.49822198  0.00085068
   0.99763522  0.50089004  0.50047615
   0.49774590 -0.00007924  0.49897969
   0.99172644 -0.00097563  0.49901903
   0.98948158  0.48977100  1.00573045
   0.49430683  0.00101627 -0.00164781
   0.48982723  0.49908837  0.50293717
   0.23766824  0.24889580  0.25241071
   0.23804222  0.24716985  0.75122893
   0.24023854  0.74895147  0.25150235
   0.24505352  0.74465341  0.74916409
   0.73384074  0.25270953  0.25211234
   0.74236742  0.24994797  0.74851661
   0.74127504  0.75376260  0.24489732
   0.74232206  0.74956029  0.74623324
   0.24664157  0.25357627 -0.00185965
   0.25362819  0.25212171  0.49876332
   0.25764881  0.74946727  0.00176965
   0.25564419  0.75196320  0.49843777
   0.75472770  0.24616812  1.00344127
   0.74981461  0.25564904  0.50170184
   0.75085918  0.75577349  1.00140269
   0.75770440  0.75892124  0.50159879
   0.25539602 -0.00265861  0.24890498
   0.25290112  0.00141383  0.75055309
   0.24963078  0.49745545  0.25297929
   0.25800748  0.49936700  0.75200557
   0.75688247  0.00269649  0.25248081
   0.75165875  0.00021159  0.75037166
   0.74572286  0.49965000  0.25350815
   0.75907983  0.49853624  0.76073186
   0.00123775  0.25231197  0.25726983
   0.00307691  0.24747415  0.74611644
   0.00009870  0.74264992  0.25016415
   0.00775184  0.74859484  0.75171492
   0.49780512  0.24558254  0.25006349
   0.50505027  0.25193392  0.75301239
   0.50282529  0.75125904  0.25318761
   0.50302937  0.74508493  0.74699799
Direct configuration=    16
   0.99899401  0.00090534  1.00088046
   0.49237674  0.49798045  0.00105015
   0.99774858  0.50097584  0.50041833
   0.49793712  0.00008042  0.49893347
   0.99219712 -0.00077197  0.49874188
   0.98931093  0.48872860  1.00643966
   0.49467919  0.00127853 -0.00137018
   0.48967583  0.49898718  0.50296978
   0.23720619  0.24871937  0.25228915
   0.23806423  0.24735899  0.75155528
   0.24010065  0.74855917  0.25141876
   0.24519437  0.74483210  0.74937852
   0.73385383  0.25307010  0.25279843
   0.74228128  0.24985934  0.74878842
   0.74126427  0.75423824  0.24463405
   0.74254404  0.74976691  0.74557232
   0.24682013  0.25391385 -0.00129533
   0.25359439  0.25182074  0.49798472
   0.25792546  0.75017464  0.00086235
   0.25504881  0.75223611  0.49803555
   0.75554905  0.24508106  1.00330034
   0.74830486  0.25662001  0.50328843
   0.75007564  0.75546688  1.00197316
   0.75841147  0.75929191  0.50163413
   0.25553572 -0.00296274  0.24852480
   0.25299135  0.00058715  0.75040914
   0.24961904  0.49867948  0.25346266
   0.25880830  0.49844513  0.75243101
   0.75747465  0.00236236  0.25230384
   0.75169237 -0.00018798  0.75057616
   0.74443676  0.49993587  0.25347714
   0.75892103  0.49775009  0.76029897
   0.00138600  0.25237112  0.25724918
   0.00262899  0.24758063  0.74641967
   0.00036975  0.74268593  0.24948411
   0.00743835  0.74873870  0.75234146
   0.49625672  0.24482128  0.24951844
   0.50429205  0.25006949  0.75439366
   0.50204373  0.75096024  0.25319062
   0.50263844  0.74472489  0.74669221
Direct configuration=    17
   0.99905180  0.00109150  1.00090783
   0.49204556  0.49780620  0.00129103
   0.99784962  0.50105551  0.50035096
   0.49805667  0.00039599  0.49891039
   0.99256576 -0.00039408  0.49856652
   0.98902694  0.48794097  1.00709593
   0.49519849  0.00144902 -0.00104122
   0.48946083  0.49892393  0.50305155
   0.23711560  0.24846252  0.25216467
   0.23838911  0.24747877  0.75158544
   0.23993940  0.74815990  0.25123681
   0.24522322  0.74529529  0.74978530
   0.73384347  0.25348571  0.25358880
   0.74243298  0.24965505  0.74928195
   0.74143767  0.75460108  0.24450893
   0.74273870  0.75023677  0.74506432
   0.24735876  0.25441738 -0.00083318
   0.25340958  0.25138551  0.49766388
   0.25831555  0.75109063  0.00019226
   0.25416363  0.75217136  0.49800477
   0.75644277  0.24412779  1.00326231
   0.74716384  0.25747295  0.50457132
   0.74929985  0.75529301  1.00241828
   0.75971630  0.75967935  0.50167534
   0.25496320 -0.00320213  0.24792093
   0.25348667 -0.00013251  0.75031353
   0.24963568  0.49995833  0.25355925
   0.25925358  0.49778731  0.75289990
   0.75793683  0.00225275  0.25191064
   0.75149507 -0.00038537  0.75068591
   0.74329093  0.49989580  0.25315671
   0.75895989  0.49718365  0.76022168
   0.00135121  0.25229595  0.25703501
   0.00182501  0.24755291  0.74683356
   0.00036895  0.74277577  0.24852796
   0.00699172  0.74901451  0.75297380
   0.49542623  0.24378562  0.24919818
   0.50343853  0.24787380  0.75574150
   0.50172562  0.75000576  0.25281741
   0.50254201  0.74463159  0.74646891
Direct configuration=    18
   0.99908009  0.00125376  1.00085733
   0.49180924  0.49761760  0.00144388
   0.99774477  0.50098202  0.50039355
   0.49817223  0.00065626  0.49897421
   0.99300385 -0.00015441  0.49828587
   0.98888333  0.48709440  1.00783396
   0.49564184  0.00152247 -0.00051815
   0.48930033  0.49891604  0.50310841
   0.23691439  0.24812797  0.25192064
   0.23881751  0.24753980  0.75118599
   0.23970189  0.74766710  0.25125454
   0.24503432  0.74568546  0.75016026
   0.73394495  0.25391964  0.25421584
   0.74240760  0.24953572  0.74971162
   0.74146705  0.75498147  0.24444722
   0.74302404  0.75057205  0.74438449
   0.24763462  0.25487421 -0.00014736
   0.25361897  0.25092068  0.49767191
   0.25889761  0.75254734 -0.00049092
   0.25329774  0.75201186  0.49828172
   0.75720616  0.24374002  1.00346583
   0.74605361  0.25826978  0.50568313
   0.74848001  0.75487768  1.00285784
   0.76072373  0.75966255  0.50126479
   0.25418392 -0.00347334  0.24706891
   0.25436882 -0.00066594  0.75040273
   0.24957192  0.50085874  0.25355962
   0.25967126  0.49696816  0.75319776
   0.75805658  0.00232590  0.25157928
   0.75165379 -0.00079662  0.75039072
   0.74211416  0.49966553  0.25296855
   0.75802090  0.49690071  0.76029627
   0.00192866  0.25217627  0.25678159
   0.00121752  0.24730415  0.74756520
   0.00058731  0.74358732  0.24798178
   0.00617373  0.74877116  0.75347961
   0.49514511  0.24282167  0.24893111
   0.50244189  0.24589965  0.75717858
   0.50174370  0.74875064  0.25231565
   0.50314094  0.74419726  0.74593013
Direct configuration=    19
   0.99921070  0.00128702  1.00092656
   0.49184727  0.49734761  0.00152281
   0.99774679  0.50076504  0.50043046
   0.49826933  0.00094633  0.49906533
   0.99344186  0.00023746  0.49799399
   0.98876864  0.48642438  1.00871109
   0.49586402  0.00157320 -0.00021246
   0.48907044  0.49866631  0.50311484
   0.23676098  0.24787033  0.25146405
   0.23942881  0.24756151  0.75047017
   0.23937105  0.74715706  0.25120245
   0.24455893  0.74627261  0.75107272
   0.73401974  0.25405366  0.25467975
   0.74229471  0.24951079  0.75067880
   0.74132601  0.75542453  0.24450098
   0.74300361  0.75073431  0.74388527
   0.24751645  0.25518153  0.00095257
   0.25412626  0.24996034  0.49795882
   0.25953513  0.75357413 -0.00131244
   0.25228601  0.75195034  0.49888887
   0.75749755  0.24336798  1.00445313
   0.74459640  0.25894112  0.50616404
   0.74735473  0.75446099  1.00305471
   0.76185612  0.75892429  0.50064751
   0.25273366 -0.00337404  0.24642105
   0.25524783 -0.00132707  0.75053605
   0.24957533  0.50116817  0.25366422
   0.25967950  0.49595110  0.75390890
   0.75753482  0.00242367  0.25159153
   0.75172820 -0.00095639  0.75013781
   0.74106120  0.49936719  0.25269392
   0.75711623  0.49706863  0.76020657
   0.00272108  0.25210033  0.25661414
   0.00076832  0.24696084  0.74843611
   0.00056812  0.74463924  0.24738508
   0.00523871  0.74856909  0.75396953
   0.49533152  0.24239477  0.24875168
   0.50137113  0.24411441  0.75850847
   0.50254742  0.74791841  0.25210587
   0.50356905  0.74414551  0.74507689
Direct configuration=    20
   0.99944463  0.00126194  1.00091494
   0.49184461  0.49710614  0.00166960
   0.99767004  0.50045085  0.50040308
   0.49846556  0.00111535  0.49902212
   0.99375483  0.00052293  0.49773071
   0.98856171  0.48571974  1.00960875
   0.49594358  0.00168049  0.00004892
   0.48899634  0.49847631  0.50304394
   0.23648929  0.24754720  0.25104965