unknown system                          
           1
     8.037805    0.000000    0.000000
     0.000000    7.815868    0.000000
     0.000000    0.000000    7.815956
   Ba   Sr   Ti   O 
     4     4     8    24
Direct configuration=     1
   0.00312811  0.00001447  0.99998691
   0.50312699  0.00001753  0.00002040
   0.50312693  0.49998247  0.00002041
   0.00312817  0.49998552  0.99998691
   0.00642556  0.00003368  0.50001291
   0.00642559  0.49996632  0.50001297
   0.50639880  0.00003758  0.49995169
   0.50639875  0.49996243  0.49995178
   0.25864473  0.25000000  0.25459206
   0.25874231  0.24999999  0.74539247
   0.25867982  0.75000000  0.25461897
   0.25874313  0.75000002  0.74540947
   0.75865260  0.25000002  0.25461771
   0.75867510  0.25000000  0.74540072
   0.75869689  0.74999998  0.25463267
   0.75867704  0.75000000  0.74541010
   0.24770182  0.25000004  0.99997597
   0.24373317  0.25000000  0.49998815
   0.24785571  0.74999997  0.99996991
   0.24374535  0.75000001  0.49999731
   0.74772699  0.24999995  0.00003668
   0.74365032  0.25000005  0.49999554
   0.74787608  0.75000006  0.00000784
   0.74366289  0.74999996  0.49999733
   0.24619795  0.99999938  0.25782234
   0.24622315  0.00001735  0.74219185
   0.24619796  0.50000060  0.25782239
   0.24622316  0.49998263  0.74219181
   0.74623760  0.00000069  0.25781220
   0.74620840  0.00000246  0.74217453
   0.74623759  0.49999929  0.25781209
   0.74620840  0.49999752  0.74217465
   0.99506590  0.25000000  0.25980219
   0.99501391  0.25000001  0.74022123
   0.99511647  0.75000001  0.25977276
   0.99508384  0.75000000  0.74022068
   0.49505036  0.24999999  0.25972756
   0.49508825  0.25000001  0.74028727
   0.49511994  0.75000002  0.25969977
   0.49510426  0.75000000  0.74027980
Direct configuration=     2
   0.00332316  0.00006448  0.99984952
   0.50313608  0.00039187  0.00014401
   0.50329041  0.49995753 -0.00016547
   0.00312255  0.49963247  1.00002294
   0.00632174  0.00015005  0.49975476
   0.00633200  0.49976602  0.49973451
   0.50623301  0.00013382  0.49999468
   0.50627269  0.49964292  0.49999722
   0.25912857  0.25005145  0.25443408
   0.25866821  0.25020236  0.74574704
   0.25867312  0.74994055  0.25433004
   0.25928992  0.75028992  0.74529909
   0.75863160  0.25033854  0.25484448
   0.75850388  0.24972563  0.74515107
   0.75828351  0.75020350  0.25508883
   0.75845870  0.75011195  0.74574242
   0.24830774  0.25047292  0.99912276
   0.24304259  0.25073418  0.49969439
   0.24821631  0.74929017  1.00066418
   0.24319507  0.75081625  0.49928503
   0.74660773  0.24915213  0.00070638
   0.74368769  0.25045979  0.49959089
   0.74732881  0.75010324 -0.00000722
   0.74455636  0.74951623  0.50039426
   0.24647548  1.00004811  0.25678057
   0.24613034  0.00094679  0.74183529
   0.24648884  0.49975544  0.25755279
   0.24661759  0.49958101  0.74171338
   0.74639979  0.00060706  0.25709430
   0.74720149 -0.00024382  0.74165489
   0.74593017  0.50016279  0.25779741
   0.74604726  0.49965368  0.74267149
   0.99509773  0.24948993  0.26037352
   0.99432044  0.24953227  0.74024671
   0.99556554  0.74998855  0.25990799
   0.99523780  0.74971497  0.74025872
   0.49486389  0.25032675  0.26012775
   0.49515431  0.24916132  0.74033114
   0.49534051  0.75001806  0.25999047
   0.49483981  0.74974377  0.74104315
Direct configuration=     3
   0.00361455  0.00010912  0.99983575
   0.50303535  0.00059265  0.00029446
   0.50359299  0.50010589 -0.00072764
   0.00350428  0.49966390  0.99999190
   0.00631535  0.00039616  0.49917938
   0.00647686  0.49954686  0.49958271
   0.50626715  0.00056782  0.50011513
   0.50632220  0.49923292  0.49991252
   0.25967867  0.25014634  0.25406234
   0.25875329  0.25060234  0.74647574
   0.25847146  0.75004524  0.25394613
   0.25994196  0.75070808  0.74540840
   0.75876926  0.25110023  0.25518966
   0.75806304  0.24936302  0.74505609
   0.75771197  0.75026508  0.25530713
   0.75790424  0.75011273  0.74627219
   0.24891818  0.25068487  0.99920631
   0.24201093  0.25106743  0.49978882
   0.24873583  0.74896631  1.00117080
   0.24227940  0.75184772  0.49853718
   0.74617197  0.24809608  0.00174381
   0.74393197  0.25146035  0.49965174
   0.74684871  0.74956482  0.00000285
   0.74511077  0.74947220  0.50074049
   0.24636519  0.99971970  0.25652682
   0.24615535  0.00092469  0.74121468
   0.24689308  0.49945609  0.25781622
   0.24653583  0.49840768  0.74133525
   0.74700509  0.00096279  0.25654021
   0.74880241 -0.00012437  0.74055939
   0.74474670  0.49994807  0.25834815
   0.74522499  0.49994888  0.74324458
   0.99480989  0.24880277  0.26028582
   0.99314494  0.24943264  0.74042738
   0.99629027  0.75031759  0.26008083
   0.99561028  0.74979338  0.74027217
   0.49463162  0.25065797  0.26116503
   0.49498522  0.24748620  0.74056535
   0.49570083  0.74948740  0.26099638
   0.49425735  0.75013658  0.74164766
Direct configuration=     4
   0.00383885  0.00002918  0.99980981
   0.50288968  0.00067331  0.00011134
   0.50371941  0.50007740 -0.00119399
   0.00400768  0.49931895  0.99975926
   0.00656737  0.00080515  0.49884600
   0.00704658  0.49949053  0.49957863
   0.50664635  0.00095098  0.50023291
   0.50632555  0.49904608  0.50006755
   0.26015783  0.25038344  0.25379081
   0.25877376  0.25094535  0.74718622
   0.25827881  0.74985895  0.25344652
   0.26015735  0.75074597  0.74513978
   0.75888485  0.25156963  0.25568880
   0.75813530  0.24899482  0.74467321
   0.75719917  0.74982166  0.25533935
   0.75755393  0.74999251  0.74672119
   0.24921446  0.25094360  0.99932645
   0.24067152  0.25051218  0.50033826
   0.24910646  0.74844060  1.00135375
   0.24126284  0.75223705  0.49782085
   0.74525543  0.24718652  0.00239250
   0.74489911  0.25270135  0.50040114
   0.74656159  0.74926109 -0.00022729
   0.74523063  0.74981524  0.50164543
   0.24599819  0.99900394  0.25699700
   0.24587129  0.00163114  0.74030261
   0.24714711  0.49968910  0.25831222
   0.24685777  0.49686902  0.74100893
   0.74766666  0.00145868  0.25605948
   0.74980419 -0.00042724  0.73960562
   0.74418479  0.49917011  0.25935178
   0.74479076  0.50028617  0.74423902
   0.99543638  0.24790373  0.26055694
   0.99141071  0.24986127  0.74110437
   0.99629821  0.75169381  0.26094341
   0.99555024  0.75007527  0.74051543
   0.49496528  0.25124120  0.26179386
   0.49461227  0.24673808  0.74122045
   0.49670163  0.74954202  0.26243671
   0.49455324  0.74976545  0.74194993
Direct configuration=     5
   0.00383513 -0.00009514  0.99985042
   0.50273850  0.00055505 -0.00015312
   0.50397196  0.49998616 -0.00175628
   0.00459041  0.49874066  0.99941944
   0.00715893  0.00086221  0.49845015
   0.00783035  0.49925761  0.49928532
   0.50712296  0.00113121  0.50068358
   0.50607073  0.49873999  0.50004880
   0.26044490  0.25056103  0.25376318
   0.25899819  0.25097058  0.74756791
   0.25810577  0.74976017  0.25302315
   0.26064869  0.75053020  0.74494668
   0.75902626  0.25215284  0.25577929
   0.75784947  0.24830151  0.74427463
   0.75718113  0.74942500  0.25562521
   0.75724899  0.74946276  0.74725135
   0.24826451  0.25122071  0.99966492
   0.23905435  0.25046501  0.50038874
   0.24913856  0.74801749  1.00168676
   0.24010719  0.75282860  0.49755384
   0.74375839  0.24656472  0.00274185
   0.74659043  0.25465275  0.50113633
   0.74614701  0.74948205 -0.00002023
   0.74566217  0.74993216  0.50255411
   0.24550409  0.99875653  0.25746622
   0.24518261  0.00287555  0.73894536
   0.24715250  0.49959752  0.25949734
   0.24756108  0.49663571  0.74116616
   0.74762786  0.00161442  0.25558418
   0.75015776 -0.00066322  0.73919419
   0.74480888  0.49835291  0.25990499
   0.74514055  0.50030518  0.74523854
   0.99634723  0.24674445  0.25995630
   0.99018961  0.24961199  0.74180400
   0.99612390  0.75230371  0.26139587
   0.99537209  0.74994957  0.74046751
   0.49536170  0.25204710  0.26231461
   0.49478245  0.24611443  0.74074065
   0.49782926  0.74975694  0.26465255
   0.49482379  0.74858522  0.74207210
Direct configuration=     6
   0.00386886 -0.00006552  0.99966793
   0.50259840  0.00049525 -0.00067398
   0.50423692  0.50021843 -0.00212801
   0.00519796  0.49787246  0.99911431
   0.00745877  0.00094473  0.49793737
   0.00869623  0.49903299  0.49919736
   0.50754106  0.00086158  0.50068255
   0.50585030  0.49863921  0.49972432
   0.26080147  0.25030025  0.25396070
   0.25892085  0.25070085  0.74872454
   0.25814511  0.74983846  0.25238852
   0.26118624  0.75041528  0.74466463
   0.75940574  0.25239426  0.25578064
   0.75810754  0.24751934  0.74429748
   0.75745974  0.74925823  0.25609595
   0.75723008  0.74866469  0.74806396
   0.24689306  0.25187531  0.99997469
   0.23751974  0.25089347  0.49990760
   0.24941144  0.74710814  1.00169667
   0.23929186  0.75390467  0.49841032
   0.74215012  0.24665234  0.00251528
   0.74792205  0.25617741  0.50122438
   0.74544625  0.74866109 -0.00010233
   0.74541060  0.75013536  0.50292764
   0.24409034  0.99883598  0.25834446
   0.24366190  0.00336458  0.73841444
   0.24677079  0.49988288  0.26051571
   0.24865774  0.49636763  0.74092775
   0.74813664  0.00202944  0.25528769
   0.75032373 -0.00127582  0.73920844
   0.74464229  0.49767096  0.25978929
   0.74447564  0.50027834  0.74637283
   0.99737485  0.24546167  0.25989635
   0.98899100  0.24888548  0.74234646
   0.99560298  0.75256531  0.26214865
   0.99570498  0.74930733  0.74028209
   0.49622789  0.25292229  0.26287596
   0.49447372  0.24564130  0.74048723
   0.49833905  0.75102169  0.26696681
   0.49457831  0.74777075  0.74206127
Direct configuration=     7
   0.00413160 -0.00008156  0.99986056
   0.50257496  0.00058212 -0.00085678
   0.50473951  0.50026702 -0.00256218
   0.00575259  0.49701501  0.99887296
   0.00763127  0.00106919  0.49741292
   0.00981431  0.49882437  0.49909002
   0.50810474  0.00033348  0.50048869
   0.50586324  0.49880898  0.49964983
   0.26114449  0.24981592  0.25453185
   0.25906693  0.25030981  0.74981161
   0.25812018  0.74959175  0.25201164
   0.26219339  0.75050333  0.74434098
   0.75928758  0.25297560  0.25532934
   0.75826273  0.24701061  0.74456943
   0.75793480  0.74921474  0.25630777
   0.75734280  0.74790546  0.74903204
   0.24527827  0.25358266  1.00023382
   0.23666781  0.25090931  0.49967268
   0.24962409  0.74631112  1.00217669
   0.23875627  0.75533150  0.49887340
   0.74153593  0.24592417  0.00176502
   0.74852992  0.25776859  0.50111330
   0.74509337  0.74725812  0.00044221
   0.74491763  0.74963191  0.50292797
   0.24348773  0.99949335  0.25850318
   0.24251638  0.00349701  0.73850477
   0.24620071  0.49969472  0.26071531
   0.24933608  0.49605417  0.74127191
   0.74901757  0.00247662  0.25483371
   0.75002566 -0.00168604  0.73891535
   0.74478637  0.49740092  0.25952947
   0.74333718  0.50003403  0.74737673
   0.99848427  0.24411472  0.25983849
   0.98854077  0.24785088  0.74259490
   0.99450995  0.75208388  0.26307318
   0.99587004  0.74861871  0.74081483
   0.49717724  0.25302719  0.26443442
   0.49460160  0.24470589  0.73989933
   0.49902979  0.75346388  0.26824479
   0.49472584  0.74647480  0.74184307
Direct configuration=     8
   0.00439969 -0.00018802  1.00029343
   0.50244458  0.00056679 -0.00099717
   0.50497007  0.50019242 -0.00289481
   0.00655620  0.49614056  0.99834775
   0.00800636  0.00133515  0.49688187
   0.01097950  0.49877433  0.49919694
   0.50879399 -0.00017492  0.50033076
   0.50557614  0.49927549  0.49957176
   0.26113140  0.24925927  0.25529217
   0.25891354  0.24995089  0.75103464
   0.25800194  0.74956427  0.25137518
   0.26270893  0.75105676  0.74472507
   0.75949963  0.25373022  0.25477664
   0.75836744  0.24636577  0.74476828
   0.75852297  0.74913832  0.25641649
   0.75800247  0.74786054  0.75020817
   0.24344198  0.25602021  1.00046015
   0.23667228  0.25081473  0.50008228
   0.25007360  0.74597820  1.00269283
   0.23908896  0.75706211  0.49939575
   0.74067017  0.24584007  0.00112099
   0.74867798  0.25912294  0.50136473
   0.74464127  0.74515759  0.00078370
   0.74462159  0.74904789  0.50285013
   0.24281161  1.00028826  0.25845888
   0.24092480  0.00300530  0.73803525
   0.24564164  0.49919059  0.26001140
   0.25024725  0.49602337  0.74127340
   0.75018031  0.00290539  0.25454974
   0.74975527 -0.00295057  0.73793579
   0.74419128  0.49775896  0.25976418
   0.74187061  0.49915471  0.74785083
   0.99969956  0.24269490  0.25907926
   0.98945568  0.24724084  0.74284807
   0.99368162  0.75070064  0.26392581
   0.99639806  0.74753598  0.74108429
   0.49800966  0.25318861  0.26599815
   0.49432558  0.24344873  0.73982956
   0.49911440  0.75566631  0.26874370
   0.49498348  0.74555853  0.74263824
Direct configuration=     9
   0.00467935 -0.00018693  1.00068650
   0.50259350  0.00047655 -0.00095748
   0.50544924  0.49989174 -0.00367556
   0.00734223  0.49536838  0.99797730
   0.00809588  0.00180711  0.49640850
   0.01177307  0.49864200  0.49934831
   0.50932173 -0.00082550  0.49982411
   0.50542100  0.50007649  0.49930574
   0.26110431  0.24825310  0.25639840
   0.25887201  0.24965788  0.75222935
   0.25803294  0.74947868  0.25067315
   0.26313115  0.75166839  0.74528666
   0.75985705  0.25438612  0.25399153
   0.75822468  0.24613446  0.74502708
   0.75905929  0.74875002  0.25665966
   0.75903409  0.74801678  0.75135779
   0.24208441  0.25798507  1.00121019
   0.23625349  0.25086614  0.49974293
   0.25039947  0.74659722  1.00353772
   0.23934173  0.75862023  0.49966612
   0.74044656  0.24654859  0.00017113
   0.74896246  0.26105725  0.50091520
   0.74362910  0.74364874  0.00106725
   0.74401045  0.74922488  0.50243147
   0.24326644  0.99979296  0.25810561
   0.23953410  0.00192099  0.73789769
   0.24511328  0.49903665  0.25933005
   0.25081703  0.49615530  0.74094119
   0.75062537  0.00250100  0.25399043
   0.74900070 -0.00381786  0.73661244
   0.74353278  0.49874213  0.25976251
   0.74077167  0.49840551  0.74892507
   1.00137956  0.24070822  0.25848478
   0.99088651  0.24715052  0.74305613
   0.99347236  0.75007299  0.26406388
   0.99674762  0.74602146  0.74167566
   0.49956958  0.25372696  0.26747958
   0.49405487  0.24214467  0.73973978
   0.49756026  0.75792996  0.26905990
   0.49456911  0.74519219  0.74313607
Direct configuration=    10
   0.00502634  0.00006741  1.00138137
   0.50242414  0.00022544 -0.00072998
   0.50576235  0.50003575 -0.00450731
   0.00831702  0.49437314  0.99758706
   0.00813682  0.00280685  0.49592250
   0.01233953  0.49872436  0.49912878
   0.50969480 -0.00156992  0.49898783
   0.50546187  0.50115131  0.49902642
   0.26118126  0.24725227  0.25799461
   0.25867300  0.25003378  0.75314426
   0.25815284  0.74986963  0.25020317
   0.26377177  0.75267230  0.74591840
   0.75981237  0.25502918  0.25294997
   0.75789280  0.24630021  0.74447851
   0.75945419  0.74830802  0.25695240
   0.76001222  0.74758350  0.75256408
   0.24172630  0.25958923  1.00147316
   0.23623272  0.25046555  0.50010905
   0.25102898  0.74733221  1.00379003
   0.24024058  0.76000865  0.50031444
   0.73919965  0.24797545 -0.00105729
   0.74889368  0.26287983  0.50077380
   0.74339750  0.74216881  0.00048024
   0.74250227  0.75003960  0.50183535
   0.24335182  0.99933208  0.25733291
   0.23837630  0.00036456  0.73907315
   0.24419621  0.49888017  0.25873367
   0.25092757  0.49759597  0.74033922
   0.75124719  0.00157468  0.25337274
   0.74750458 -0.00459081  0.73556176
   0.74265659  0.50002144  0.25944750
   0.73922672  0.49779857  0.75024636
   1.00207040  0.23857138  0.25773406
   0.99164699  0.24723353  0.74327980
   0.99319058  0.74998200  0.26482076
   0.99679137  0.74515831  0.74284814
   0.50094847  0.25486681  0.26896293
   0.49360849  0.24113649  0.73981597
   0.49606611  0.75996072  0.26973996
   0.49387494  0.74438842  0.74353023
Direct configuration=    11
   0.00528625  0.00034996  1.00191862
   0.50229422  0.00012841 -0.00048444
   0.50593653  0.50019900 -0.00534569
   0.00934719  0.49358331  0.99689367
   0.00811453  0.00366022  0.49521128
   0.01233168  0.49879185  0.49875093
   0.50987494 -0.00254779  0.49805219
   0.50529098  0.50235662  0.49841662
   0.26101288  0.24627513  0.25946899
   0.25892922  0.25021811  0.75359638
   0.25825687  0.74986199  0.24965266
   0.26378657  0.75323432  0.74634020
   0.76000516  0.25537608  0.25193633
   0.75725448  0.24646108  0.74398709
   0.75943310  0.74767851  0.25826249
   0.76127173  0.74694277  0.75378834
   0.24151432  0.26067968  1.00142328
   0.23610504  0.24978013  0.50117076
   0.25149163  0.74769081  1.00346691
   0.24198439  0.76069951  0.50085386
   0.73822218  0.24900666 -0.00220643
   0.74864059  0.26449119  0.50111513
   0.74407748  0.74086482  0.00056906
   0.74052043  0.75059756  0.50149677
   0.24277028  0.99913961  0.25586711
   0.23786739 -0.00071378  0.74177053
   0.24351809  0.49868968  0.25901467
   0.24999195  0.49966152  0.73997760
   0.75190746 -0.00007295  0.25282199
   0.74618061 -0.00544507  0.73558208
   0.74180298  0.50236065  0.25901604
   0.73852724  0.49685364  0.75142821
   1.00157010  0.23703136  0.25766366
   0.99224235  0.24792285  0.74385228
   0.99355365  0.74946653  0.26582669
   0.99688061  0.74427703  0.74457261
   0.50214767  0.25574465  0.27028815
   0.49357564  0.24112405  0.73972394
   0.49395880  0.76180057  0.27028974
   0.49338552  0.74429908  0.74433050
Direct configuration=    12
   0.00534998  0.00065529  1.00227968
   0.50222252 -0.00003131 -0.00036951
   0.50592741  0.50032035 -0.00629465
   0.01060459  0.49298795  0.99590676
   0.00823631  0.00411190  0.49461740
   0.01214449  0.49896754  0.49841470
   0.50998963 -0.00344245  0.49709069
   0.50522183  0.50344060  0.49760478
   0.26025740  0.24522858  0.26123331
   0.25934198  0.25035691  0.75377788
   0.25855122  0.74990917  0.24867925
   0.26341052  0.75381711  0.74665993
   0.75999154  0.25542371  0.25179370
   0.75660081  0.24632144  0.74378500
   0.75949584  0.74735916  0.25931532
   0.76288103  0.74573896  0.75459503
   0.24203351  0.26160947  1.00092706
   0.23678360  0.24918687  0.50184086
   0.25179163  0.74829206  1.00378749
   0.24381744  0.76186837  0.50182636
   0.73743667  0.24956313 -0.00295968
   0.74843820  0.26569020  0.50136342
   0.74461737  0.74005940  0.00088837
   0.73836637  0.75170510  0.50125090
   0.24235075  0.99954525  0.25465308
   0.23741021 -0.00133745  0.74473480
   0.24228257  0.49765708  0.25957813
   0.24940735  0.50146910  0.73959084
   0.75242233 -0.00111665  0.25272948
   0.74500526 -0.00603142  0.73599648
   0.74125386  0.50485639  0.25799042
   0.73881014  0.49602508  0.75277651
   1.00070418  0.23663812  0.25797543
   0.99251184  0.24838949  0.74506514
   0.99432702  0.74945790  0.26655457
   0.99644074  0.74393498  0.74679600
   0.50215996  0.25606953  0.27142177
   0.49337422  0.24168785  0.73952678
   0.49190079  0.76295368  0.27083740
   0.49263224  0.74428227  0.74526623
Direct configuration=    13
   0.00526375  0.00058211  1.00228422
   0.50221028 -0.00027270 -0.00009977
   0.50576820  0.50050256 -0.00711983
   0.01218795  0.49263098  0.99497180
   0.00818640  0.00457288  0.49409850
   0.01189423  0.49920070  0.49837042
   0.50981961 -0.00438068  0.49557453
   0.50497301  0.50473442  0.49671595
   0.25991785  0.24422164  0.26294524
   0.26001171  0.25037389  0.75376160
   0.25897076  0.75008380  0.24815605
   0.26325542  0.75378022  0.74687030
   0.75971811  0.25550393  0.25218333
   0.75615752  0.24613974  0.74354785
   0.75992323  0.74770580  0.26065383
   0.76461529  0.74485648  0.75512178
   0.24213873  0.26250972  0.99956373
   0.23698628  0.24822304  0.50231790
   0.25111762  0.74884637  1.00338829
   0.24622211  0.76307533  0.50259269
   0.73681302  0.24948474 -0.00246065
   0.74836861  0.26635245  0.50151104
   0.74536680  0.73960835  0.00161794
   0.73589712  0.75234358  0.50127659
   0.24236254  1.00040933  0.25277403
   0.23643637 -0.00159218  0.74820946
   0.24129682  0.49733136  0.25990797
   0.24860216  0.50300344  0.73930982
   0.75283443 -0.00193541  0.25215498
   0.74393420 -0.00544590  0.73596754
   0.74026475  0.50573405  0.25750543
   0.73975498  0.49580207  0.75327373
   0.99973636  0.23736918  0.25753452
   0.99294390  0.24834615  0.74660008
   0.99544120  0.74956494  0.26687885
   0.99689643  0.74446933  0.74950980
   0.50179532  0.25650308  0.27212050
   0.49279229  0.24264930  0.73885661
   0.48916374  0.76359614  0.27096583
   0.49254522  0.74437176  0.74650094
Direct configuration=    14
   0.00521120  0.00040756  1.00239797
   0.50202743 -0.00038812  0.00029559
   0.50540615  0.50068675 -0.00805647
   0.01380448  0.49224832  0.99410862
   0.00797253  0.00498037  0.49361063
   0.01180381  0.49930404  0.49813959
   0.50951831 -0.00545721  0.49408477
   0.50469216  0.50619239  0.49586534
   0.25944251  0.24353169  0.26462792
   0.26055280  0.25045325  0.75356040
   0.25928683  0.74958722  0.24786974
   0.26301674  0.75386652  0.74709165
   0.75906335  0.25546885  0.25282781
   0.75547721  0.24615253  0.74324170
   0.76035368  0.74795731  0.26169929
   0.76603230  0.74344565  0.75572276
   0.24262629  0.26302004  0.99814624
   0.23740042  0.24609593  0.50259871
   0.25116556  0.74912429  1.00251485
   0.24896289  0.76414078  0.50294141
   0.73678599  0.24919017 -0.00166051
   0.74905501  0.26602211  0.50128467
   0.74558817  0.73948908  0.00288677
   0.73382227  0.75265958  0.50214577
   0.24259513  1.00116104  0.25051007
   0.23589601 -0.00208964  0.75159230
   0.24009817  0.49756963  0.25955681
   0.24824211  0.50372235  0.73813647
   0.75164247 -0.00206522  0.25132800
   0.74286062 -0.00401265  0.73659083
   0.73955138  0.50590192  0.25773746
   0.74102099  0.49622263  0.75353365
   0.99823935  0.23820303  0.25644515
   0.99357283  0.24826298  0.74822222
   0.99643817  0.74997141  0.26734544
   0.99587605  0.74445689  0.75155975
   0.50075391  0.25659873  0.27281453
   0.49212196  0.24352853  0.73883459
   0.48682111  0.76342539  0.27130021
   0.49264412  0.74511831  0.74772368
Direct configuration=    15
   0.00498068  0.00003236  1.00233348
   0.50189768 -0.00023486  0.00071842
   0.50501881  0.50107964 -0.00883369
   0.01525219  0.49178160  0.99331210
   0.00767016  0.00521357  0.49315671
   0.01165417  0.49954168  0.49779606
   0.50886486 -0.00678500  0.49250209
   0.50466040  0.50789596  0.49520179
   0.25857846  0.24335359  0.26586162
   0.26121150  0.25046221  0.75382769
   0.25937876  0.74925674  0.24771927
   0.26283676  0.75393843  0.74732018
   0.75882208  0.25569684  0.25322723
   0.75506149  0.24621644  0.74300687
   0.76115218  0.74848474  0.26196396
   0.76740749  0.74209911  0.75616830
   0.24383490  0.26271768  0.99618305
   0.23749345  0.24386336  0.50208626
   0.25114249  0.74985966  1.00145261
   0.25181830  0.76513330  0.50384273
   0.73742469  0.24872099  0.00055647
   0.74974412  0.26524777  0.50062801
   0.74726669  0.73966371  0.00391977
   0.73202481  0.75298152  0.50259142
   0.24398100  1.00238392  0.24799905
   0.23545373 -0.00270871  0.75433248
   0.23837974  0.49880627  0.25930812
   0.24807824  0.50464745  0.73767629
   0.75026658 -0.00201176  0.24978765
   0.74186538 -0.00206299  0.73763973
   0.73971095  0.50452803  0.25750386
   0.74206007  0.49636365  0.75325188
   0.99742177  0.23976617  0.25610413
   0.99379691  0.24766343  0.74946733
   0.99772553  0.75023122  0.26883426
   0.99538299  0.74445639  0.75354026
   0.49966724  0.25683307  0.27269655
   0.49169573  0.24414778  0.73984569
   0.48518237  0.76319126  0.27190799
   0.49343088  0.74684154  0.74861762
Direct configuration=    16
   0.00437077 -0.00060273  1.00212439
   0.50205424  0.00005278  0.00154264
   0.50461597  0.50149873 -0.00948901
   0.01659200  0.49154200  0.99279233
   0.00745385  0.00575892  0.49300741
   0.01171390  0.49980266  0.49758822
   0.50775330 -0.00803040  0.49094104
   0.50476090  0.50934198  0.49460945
   0.25796106  0.24370468  0.26700491
   0.26180658  0.25045810  0.75397136
   0.25908583  0.74890115  0.24748263
   0.26270960  0.75378045  0.74678866
   0.75808927  0.25579909  0.25344124
   0.75486503  0.24592166  0.74282547
   0.76207464  0.74929173  0.26214300
   0.76889831  0.74056515  0.75676313
   0.24552603  0.26253811  0.99469763
   0.23704823  0.24262285  0.50267606
   0.25188661  0.75057822  0.99953881
   0.25440396  0.76677703  0.50545439
   0.73788697  0.24872308  0.00425023
   0.75086255  0.26471916  0.50075229
   0.74843474  0.73987360  0.00506277
   0.73068650  0.75342257  0.50280962
   0.24603207  1.00371650  0.24553539
   0.23480667 -0.00292485  0.75818835
   0.23708109  0.49990944  0.25954302
   0.24752453  0.50391852  0.73733656
   0.74862967 -0.00203418  0.24888423
   0.74092769 -0.00004178  0.73850378
   0.74038018  0.50358931  0.25697928
   0.74315164  0.49654581  0.75305131
   0.99605990  0.24188379  0.25640926
   0.99388479  0.24757901  0.75031395
   0.99877621  0.75056680  0.26990655
   0.99636478  0.74477600  0.75470333
   0.49852472  0.25718401  0.27240743
   0.49080064  0.24499966  0.74171073
   0.48435930  0.76332154  0.27084959
   0.49396354  0.74839959  0.74901955
Direct configuration=    17
   0.00370983 -0.00101208  1.00200439
   0.50214593  0.00027451  0.00237710
   0.50399632  0.50180869 -0.01007738
   0.01763931  0.49129393  0.99219580
   0.00724367  0.00645700  0.49301317
   0.01209268  0.50014638  0.49737592
   0.50637117 -0.00961805  0.48944308
   0.50491708  0.51080427  0.49393802
   0.25737716  0.24423647  0.26766516
   0.26207912  0.25002225  0.75391631
   0.25850885  0.74825651  0.24751947
   0.26261706  0.75358900  0.74579540
   0.75669645  0.25598923  0.25364098
   0.75439601  0.24603817  0.74259370
   0.76279182  0.74977466  0.26191107
   0.77011317  0.73909474  0.75732708
   0.24695087  0.26194781  0.99408658
   0.23739254  0.24129773  0.50298266
   0.25224425  0.75098704  0.99843104
   0.25684547  0.76848808  0.50721410
   0.73843753  0.24938847  0.00755810
   0.75134662  0.26432602  0.50129007
   0.74957764  0.74023261  0.00658203
   0.72986461  0.75350229  0.50325491
   0.24731172  1.00483953  0.24281165
   0.23397764 -0.00164994  0.76235424
   0.23553366  0.50062800  0.25956224
   0.24638797  0.50250399  0.73764492
   0.74730606 -0.00152591  0.24891415
   0.73991435  0.00256142  0.73912173
   0.74079827  0.50287065  0.25659425
   0.74411464  0.49651674  0.75303558
   0.99375230  0.24409594  0.25629667
   0.99364499  0.24674580  0.75056311
   1.00028919  0.75076292  0.27037932
   0.99719226  0.74514983  0.75456806
   0.49741756  0.25753794  0.27258621
   0.48974371  0.24631416  0.74193870
   0.48402357  0.76278459  0.26935650
   0.49494968  0.75026649  0.74971410
Direct configuration=    18
   0.00299289 -0.00153902  1.00175933
   0.50211704  0.00036512  0.00329298
   0.50327249  0.50209158 -0.01029924
   0.01871901  0.49135931  0.99161819
   0.00699343  0.00718792  0.49315545
   0.01247792  0.50040652  0.49739861
   0.50492951 -0.01110277  0.48817139
   0.50520910  0.51257298  0.49343731
   0.25677286  0.24480074  0.26840556
   0.26166439  0.24946726  0.75367131
   0.25802825  0.74794155  0.24802601
   0.26288685  0.75357679  0.74500896
   0.75526224  0.25625968  0.25345923
   0.75447788  0.24606131  0.74230619
   0.76338648  0.75018266  0.26138655
   0.77092268  0.73796319  0.75851863
   0.24863288  0.26010465  0.99426454
   0.23701878  0.24021824  0.50267709
   0.25252256  0.75090729  0.99826570
   0.25960992  0.77044128  0.50882824
   0.73867891  0.24981057  0.01068228
   0.75236406  0.26399455  0.50203760
   0.75072847  0.74084767  0.00788895
   0.72973416  0.75273657  0.50328895
   0.24820251  1.00563783  0.24009588
   0.23304780  0.00014550  0.76670841
   0.23460133  0.50109839  0.25944657
   0.24541972  0.50139812  0.73727095
   0.74599258 -0.00040442  0.24945605
   0.73834457  0.00465204  0.74023763
   0.74044722  0.50194258  0.25640130
   0.74507702  0.49694848  0.75260917
   0.99203233  0.24732653  0.25577924
   0.99280670  0.24620911  0.75038702
   1.00133329  0.75085375  0.27060588
   0.99825284  0.74634012  0.75320681
   0.49573967  0.25723937  0.27246276
   0.48922531  0.24804248  0.74275168
   0.48449750  0.76185260  0.26694028
   0.49541326  0.75251424  0.75016502
Direct configuration=    19
   0.00207045 -0.00214589  1.00153000
   0.50191796  0.00051372  0.00412138
   0.50250749  0.50210323 -0.01018361
   0.01955496  0.49134923  0.99109820
   0.00655477  0.00795526  0.49346530
   0.01277194  0.50082689  0.49717182
   0.50358073 -0.01228190  0.48697910
   0.50532345  0.51423928  0.49289781
   0.25603500  0.24564721  0.26872268
   0.26088681  0.24853937  0.75332837
   0.25748504  0.74742093  0.24862000
   0.26356725  0.75379126  0.74389371
   0.75417187  0.25660519  0.25312650
   0.75434081  0.24613568  0.74191984
   0.76414404  0.75047390  0.26074811
   0.77157824  0.73674851  0.75953148
   0.25042609  0.25835267  0.99584975
   0.23675352  0.23884112  0.50240268
   0.25202223  0.75065390  0.99859310
   0.26168721  0.77219489  0.50935321
   0.73958383  0.24968418  0.01371047
   0.75299023  0.26390355  0.50341349
   0.75176825  0.74179161  0.00884791
   0.73057934  0.75136200  0.50287808
   0.24867478  1.00582510  0.23804680
   0.23272738  0.00135522  0.76921936
   0.23418235  0.50133711  0.25978603
   0.24513643  0.50001455  0.73614485
   0.74442791  0.00057417  0.25048402
   0.73683096  0.00688749  0.74137789
   0.73978772  0.50184359  0.25652125
   0.74588759  0.49777524  0.75155046
   0.99051100  0.24992914  0.25595571
   0.99224876  0.24602301  0.75011132
   1.00205363  0.75023437  0.27117065
   0.99933219  0.74702496  0.75118846
   0.49329913  0.25655751  0.27262010
   0.48862836  0.24966544  0.74343000
   0.48474232  0.75966989  0.26478332
   0.49683502  0.75454403  0.74987671
Direct configuration=    20
   0.00140201 -0.00254917  1.00139083
   0.50155974  0.00087837  0.00501794
   0.50159949  0.50231646 -0.01004820
   0.02036273  0.49120890  0.99070370
   0.00599561  0.00892561  0.49361049
   0.01294211  0.50111042  0.49703165
   0.50231180 -0.01336208  0.48649171
   0.50546531  0.51579243  0.49244263
   0.25508304  0.24641535  0.26910237