unknown system                          
           1
     7.902000    0.000000    0.000000
     0.000000    7.902000    0.000000
     0.000000    0.000000    7.712377
   Ba   Sr   Ti   O 
     3     5     8    24
Direct configuration=     1
   0.00000001  0.50000002  1.00000000
   0.00000001  0.00000001  1.00000000
   0.50000003  0.00000001  1.00000000
   0.00000003  0.50000001  0.50000000
   0.00000002  0.00000001  0.50000000
   0.50000001  0.50000001  0.49999999
   0.50000002  0.00000002  0.50000000
   0.50000002  0.50000001  1.00000000
   0.25114307  0.74885713  0.74594067
   0.25114309  0.25114302  0.74594069
   0.25114308  0.74885711  0.25405931
   0.25114310  0.25114301  0.25405929
   0.74885717  0.74885715  0.74594063
   0.74885719  0.25114305  0.74594065
   0.74885719  0.74885713  0.25405934
   0.74885721  0.25114303  0.25405932
   0.99999994  0.74838832  0.71713260
   0.99999993  0.25161162  0.71713260
   0.99999994  0.74838833  0.28286741
   0.99999993  0.25161163  0.28286741
   0.49999995  0.74815701  0.76992372
   0.49999994  0.25184292  0.76992371
   0.49999994  0.74815702  0.23007630
   0.49999993  0.25184293  0.23007630
   0.28024177  0.71975815  0.50000000
   0.28024177  0.28024181  0.50000000
   0.23452430  0.76547563  0.00000000
   0.23452430  0.23452433  0.00000001
   0.71975814  0.71975815  0.50000000
   0.71975811  0.28024178  0.50000000
   0.76547561  0.76547562  0.00000001
   0.76547560  0.23452431  0.00000001
   0.25184291  0.49999997  0.76992371
   0.25161161  0.99999997  0.71713259
   0.25184290  0.49999997  0.23007630
   0.25161160  0.99999997  0.28286742
   0.74815700  0.49999996  0.76992372
   0.74838831  0.99999995  0.71713260
   0.74815699  0.49999996  0.23007630
   0.74838830  0.99999996  0.28286741
Direct configuration=     2
  -0.00000821  0.50003826  0.99981551
  -0.00008737  0.00008099  0.99989708
   0.49998307 -0.00011677  1.00011589
  -0.00038795  0.49958617  0.50007192
  -0.00020767 -0.00019374  0.50011729
   0.49965343  0.50002717  0.50024092
   0.50008268 -0.00011663  0.50006097
   0.49983090  0.50000744  1.00005278
   0.25121434  0.74849502  0.74600805
   0.25091501  0.25161532  0.74592251
   0.25091235  0.74880772  0.25411878
   0.25092802  0.25131520  0.25416095
   0.74897766  0.74879264  0.74604209
   0.74890334  0.25152685  0.74597363
   0.74871351  0.74895362  0.25397277
   0.74914500  0.25157118  0.25402882
   1.00026935  0.74835487  0.71667966
   1.00091077  0.25195203  0.71670361
   0.99958749  0.74859898  0.28281189
   1.00017641  0.25131120  0.28254771
   0.49984318  0.74885047  0.76987391
   0.50016090  0.25185027  0.77027433
   0.49965064  0.74762542  0.23093363
   0.50028110  0.25197474  0.23062145
   0.28046369  0.71958168  0.50025165
   0.28002119  0.27947842  0.50024362
   0.23496856  0.76525872  0.00040971
   0.23418545  0.23467309 -0.00100741
   0.71933200  0.72031604  0.49964234
   0.72035899  0.28005048  0.50020356
   0.76523511  0.76567062 -0.00010896
   0.76622504  0.23441563  0.00039978
   0.25214927  0.50016576  0.76984514
   0.25055414  1.00028733  0.71711467
   0.25126110  0.49958333  0.23021889
   0.25193439  1.00025574  0.28285651
   0.74835771  0.49968613  0.76991333
   0.74877146  1.00009725  0.71691360
   0.74804435  0.50057975  0.23107089
   0.74815352  1.00080163  0.28253024
Direct configuration=     3
  -0.00010403  0.50016744  0.99959313
   0.00000543  0.00011906  0.99969444
   0.49985485 -0.00024054  1.00012739
  -0.00092496  0.49888410  0.50017133
  -0.00036810 -0.00053582  0.50013563
   0.49925041  0.50003585  0.50030518
   0.50024945 -0.00044129  0.50014908
   0.49956489  0.49989640  1.00010384
   0.25100074  0.74836869  0.74609104
   0.25053448  0.25213946  0.74559700
   0.25079106  0.74876042  0.25428044
   0.25113799  0.25136123  0.25478535
   0.74937321  0.74909168  0.74618877
   0.74885063  0.25171492  0.74581335
   0.74859915  0.74943741  0.25381737
   0.74941871  0.25201643  0.25425364
   1.00042145  0.74707365  0.71662946
   1.00221348  0.25261290  0.71680062
   0.99847449  0.74882529  0.28291977
   1.00022088  0.25142758  0.28227433
   0.49934234  0.74983819  0.76945262
   0.50019742  0.25226146  0.77032142
   0.49929658  0.74661975  0.23230346
   0.50055920  0.25262916  0.23159570
   0.28077008  0.71971571  0.50033198
   0.27977681  0.27945191  0.50044184
   0.23549050  0.76481195  0.00025308
   0.23386964  0.23475423 -0.00214452
   0.71851949  0.72093665  0.50006774
   0.72109876  0.28020192  0.50047014
   0.76519642  0.76600980  0.00067367
   0.76686174  0.23414639  0.00030741
   0.25167919  0.50059714  0.76929656
   0.25004616  1.00081009  0.71738699
   0.25119791  0.50044737  0.22999894
   0.25206245  1.00067704  0.28317564
   0.74799093  0.49979153  0.77010822
   0.74938117  1.00016981  0.71592242
   0.74819468  0.50104501  0.23232748
   0.74821047  1.00254282  0.28284558
Direct configuration=     4
  -0.00001491  0.50035038  0.99945696
   0.00016463 -0.00004608  0.99976305
   0.49970930 -0.00035519  1.00031805
  -0.00159966  0.49796217  0.50030598
  -0.00057987 -0.00081637  0.50013025
   0.49862164  0.49982589  0.50088019
   0.50037913 -0.00060845  0.49989586
   0.49925675  0.49954016  1.00010537
   0.25102844  0.74850380  0.74612948
   0.25009806  0.25225089  0.74513993
   0.25073844  0.74883145  0.25405538
   0.25118298  0.25162184  0.25545165
   0.74999214  0.74965070  0.74592777
   0.74880784  0.25186046  0.74521253
   0.74832116  0.74995842  0.25377508
   0.74979889  0.25310507  0.25438549
   1.00073792  0.74576000  0.71597694
   1.00346267  0.25306230  0.71723998
   0.99731908  0.74895276  0.28280802
   0.99953491  0.25237690  0.28296586
   0.49938080  0.75080497  0.76834732
   0.50089528  0.25172764  0.77068480
   0.49945584  0.74567464  0.23353707
   0.50109238  0.25373059  0.23227664
   0.28175889  0.72065320  0.50035544
   0.27977800  0.28005852  0.50051054
   0.23636049  0.76383950  0.00031683
   0.23326059  0.23585342 -0.00374360
   0.71737796  0.72115050  0.50144392
   0.72168686  0.28040953  0.50051664
   0.76500329  0.76747811  0.00133542
   0.76816987  0.23428001 -0.00008416
   0.25177344  0.50090007  0.76868347
   0.24942705  1.00077761  0.71782615
   0.25094833  0.50083562  0.22978022
   0.25205133  1.00062027  0.28321887
   0.74814009  0.49939050  0.77140334
   0.74961096  1.00012357  0.71473485
   0.74835064  0.50159896  0.23374900
   0.74800978  1.00489173  0.28338153
Direct configuration=     5
   0.00006853  0.50043308  0.99925603
   0.00034153 -0.00022017  0.99981883
   0.49946918 -0.00039490  1.00068112
  -0.00267414  0.49658982  0.50036825
  -0.00125093 -0.00093224  0.50015459
   0.49833775  0.49937721  0.50134671
   0.50022980 -0.00062579  0.49947525
   0.49872891  0.49947467  1.00020721
   0.25123722  0.74886513  0.74564743
   0.24926542  0.25174216  0.74520495
   0.25084743  0.74914751  0.25437395
   0.25128229  0.25195905  0.25610359
   0.75065931  0.74986391  0.74600744
   0.74859576  0.25229629  0.74497407
   0.74798347  0.75079444  0.25413446
   0.75047208  0.25417955  0.25418043
   1.00061019  0.74330864  0.71507099
   1.00440496  0.25313141  0.71664495
   0.99533395  0.74965959  0.28279078
   0.99801039  0.25313135  0.28364921
   0.49908298  0.75197853  0.76780627
   0.50152414  0.25234252  0.77073416
   0.49976838  0.74492838  0.23453395
   0.50186937  0.25506659  0.23340149
   0.28183381  0.72150337  0.50029708
   0.28001364  0.28054371  0.50080203
   0.23767024  0.76298964  0.00091006
   0.23292276  0.23762347 -0.00482191
   0.71622032  0.72149272  0.50214686
   0.72314152  0.28109915  0.50063120
   0.76510018  0.76830556  0.00100919
   0.76997050  0.23459754 -0.00029900
   0.25155412  0.50098222  0.76805380
   0.24755887  1.00085644  0.71887698
   0.25021132  0.50166082  0.22939712
   0.25244328  1.00072349  0.28289174
   0.74818767  0.49939694  0.77265244
   0.74948704  1.00058870  0.71391299
   0.74736705  0.50288550  0.23492072
   0.74804723  1.00696039  0.28467698
Direct configuration=     6
   0.00017415  0.50058276  0.99879528
   0.00044986 -0.00041354  1.00009639
   0.49904674 -0.00032713  1.00092473
  -0.00363065  0.49526687  0.50071716
  -0.00169042 -0.00108127  0.50034348
   0.49812640  0.49911433  0.50168495
   0.50009127 -0.00086582  0.49940531
   0.49851109  0.49940769  1.00081257
   0.25148931  0.74917007  0.74514907
   0.24841858  0.25139647  0.74546505
   0.25081803  0.74947204  0.25440540
   0.25146236  0.25216576  0.25622177
   0.75079376  0.75008812  0.74611892
   0.74785696  0.25250516  0.74420110
   0.74750521  0.75162106  0.25461754
   0.75119044  0.25546821  0.25370699
   1.00065078  0.74174918  0.71408930
   1.00447312  0.25348661  0.71621081
   0.99292001  0.75058241  0.28395600
   0.99630934  0.25452231  0.28393979
   0.49868209  0.75251020  0.76747063
   0.50117244  0.25246214  0.77114214
   0.49909142  0.74469318  0.23548940
   0.50233048  0.25576816  0.23466029
   0.28129422  0.72261841  0.50024126
   0.27953730  0.28057785  0.50094689
   0.23880380  0.76227941  0.00236429
   0.23244482  0.23904049 -0.00484192
   0.71478660  0.72159039  0.50299766
   0.72468627  0.28173858  0.50122767
   0.76486421  0.76882121  0.00054196
   0.77149212  0.23446683  0.00010211
   0.25179936  0.50040649  0.76711037
   0.24701874  1.00044898  0.72029190
   0.24933187  0.50286559  0.22875428
   0.25362467  1.00148309  0.28255291
   0.74887814  0.49977441  0.77278390
   0.74937722  1.00084235  0.71269890
   0.74664250  0.50412633  0.23507885
   0.74813832  1.00866005  0.28623941
Direct configuration=     7
   0.00033817  0.50069288  0.99830406
   0.00052280 -0.00060658  1.00047078
   0.49870927 -0.00004582  1.00129231
  -0.00466753  0.49392126  0.50087893
  -0.00191713 -0.00116007  0.50023035
   0.49764415  0.49903433  0.50176661
   0.49940919 -0.00149072  0.49923783
   0.49838897  0.49907818  1.00149231
   0.25210124  0.74959355  0.74519967
   0.24753876  0.25097058  0.74565370
   0.25062126  0.74958214  0.25450645
   0.25137660  0.25268522  0.25590076
   0.75072951  0.75038333  0.74654203
   0.74695402  0.25264463  0.74360403
   0.74635129  0.75224773  0.25503370
   0.75168309  0.25669650  0.25316395
   1.00038652  0.74070790  0.71338350
   1.00449897  0.25392478  0.71721874
   0.99122092  0.75118672  0.28612814
   0.99530465  0.25555585  0.28460022
   0.49819440  0.75363508  0.76744633
   0.50138994  0.25305436  0.77207550
   0.49872183  0.74380711  0.23625061
   0.50211395  0.25703620  0.23557414
   0.28165680  0.72412119  0.49967809
   0.27968801  0.28049179  0.49970130
   0.24032514  0.76089623  0.00400108
   0.23247534  0.24106938 -0.00388873
   0.71381682  0.72170491  0.50377590
   0.72640521  0.28204229  0.50293719
   0.76490968  0.76859500 -0.00064559
   0.77366296  0.23455637  0.00066333
   0.25226196  0.50063632  0.76549778
   0.24746885  1.00034738  0.72195010
   0.24827435  0.50400366  0.22953115
   0.25400019  1.00218226  0.28207294
   0.74962950  0.50098058  0.77264673
   0.74932809  1.00110133  0.71162933
   0.74614105  0.50595350  0.23555072
   0.74798382  1.01058091  0.28895557
Direct configuration=     8
   0.00050349  0.50066405  0.99780636
   0.00115416 -0.00065695  1.00103519
   0.49863829  0.00037132  1.00175854
  -0.00565236  0.49252692  0.50067926
  -0.00243122 -0.00146007  0.50008413
   0.49731435  0.49895311  0.50178704
   0.49869332 -0.00208409  0.49926241
   0.49831589  0.49897449  1.00230935
   0.25271286  0.75052719  0.74546423
   0.24661165  0.25073456  0.74536171
   0.25096388  0.74992970  0.25434365
   0.25128591  0.25328811  0.25551087
   0.75083407  0.75040573  0.74638186
   0.74548996  0.25296232  0.74314596
   0.74543712  0.75249189  0.25535253
   0.75236084  0.25822859  0.25228985
   0.99867964  0.74091761  0.71278532
   1.00459849  0.25448796  0.71803723
   0.99000573  0.75207236  0.28810413
   0.99386696  0.25653994  0.28515455
   0.49796558  0.75374823  0.76739030
   0.50160678  0.25386537  0.77252047
   0.49788375  0.74408404  0.23692180
   0.50080784  0.25835195  0.23663249
   0.28157378  0.72552197  0.49940313
   0.28032027  0.27993504  0.49898287
   0.24176278  0.75921994  0.00512778
   0.23265755  0.24260204 -0.00186291
   0.71298227  0.72224886  0.50483879
   0.72814992  0.28250673  0.50475209
   0.76493988  0.76798731 -0.00259411
   0.77574719  0.23463866  0.00124459
   0.25310299  0.50063573  0.76409029
   0.24817073  0.99996462  0.72312359
   0.24780074  0.50521037  0.23037526
   0.25399627  1.00350153  0.28342006
   0.74946182  0.50273919  0.77303496
   0.74932177  1.00211296  0.71115984
   0.74540396  0.50789210  0.23620997
   0.74788066  1.01251317  0.29190529
Direct configuration=     9
   0.00071500  0.50065056  0.99750319
   0.00191865 -0.00080969  1.00183411
   0.49843758  0.00081037  1.00197455
  -0.00640639  0.49137875  0.50045791
  -0.00313256 -0.00192069  0.49996575
   0.49708327  0.49913781  0.50163471
   0.49840940 -0.00228677  0.49921842
   0.49831388  0.49896381  1.00268026
   0.25352670  0.75134483  0.74608302
   0.24587272  0.25051732  0.74498404
   0.25087212  0.75062090  0.25421819
   0.25147357  0.25395828  0.25472964
   0.75108023  0.75080029  0.74587794
   0.74416567  0.25255893  0.74306634
   0.74458028  0.75254600  0.25544416
   0.75290438  0.25976986  0.25095791
   0.99675853  0.74122275  0.71256625
   1.00461779  0.25445251  0.71908823
   0.98902286  0.75273763  0.29026927
   0.99261307  0.25739658  0.28525406
   0.49801531  0.75289594  0.76738965
   0.50251081  0.25430477  0.77358988
   0.49723223  0.74405928  0.23705137
   0.49874080  0.25958886  0.23752173
   0.28216327  0.72705831  0.49983347
   0.28138159  0.27882135  0.49824718
   0.24394971  0.75747908  0.00593425
   0.23256306  0.24429729  0.00087695
   0.71219908  0.72256662  0.50575547
   0.72922956  0.28390301  0.50703568
   0.76447477  0.76845255 -0.00406158
   0.77751230  0.23505587  0.00126481
   0.25378662  0.50013938  0.76261512
   0.24828795  0.99950869  0.72403051
   0.24772258  0.50672068  0.23097872
   0.25335927  1.00501062  0.28463872
   0.74955683  0.50401193  0.77358708
   0.74962880  1.00285366  0.71187709
   0.74481664  0.51021232  0.23757700
   0.74808585  1.01424551  0.29488982
Direct configuration=    10
   0.00081675  0.50067877  0.99731732
   0.00253561 -0.00082647  1.00262213
   0.49835823  0.00121021  1.00230453
  -0.00695908  0.49073220  0.49999344
  -0.00393689 -0.00246258  0.49981533
   0.49662838  0.49928802  0.50125968
   0.49806463 -0.00256865  0.49903899
   0.49838239  0.49857272  1.00294612
   0.25447756  0.75167807  0.74692540
   0.24531999  0.25017507  0.74492111
   0.25080778  0.75120526  0.25428499
   0.25236232  0.25446767  0.25370536
   0.75151644  0.75107406  0.74528914
   0.74255114  0.25241091  0.74288721
   0.74400281  0.75296695  0.25541938
   0.75348014  0.26155548  0.24929109
   0.99497001  0.74192421  0.71233106
   1.00473733  0.25491189  0.71983892
   0.98866879  0.75314327  0.29280950
   0.99221153  0.25788564  0.28593193
   0.49806495  0.75264913  0.76685776
   0.50361006  0.25464180  0.77456846
   0.49652358  0.74485901  0.23749487
   0.49590643  0.26095281  0.23850180
   0.28227585  0.72941616  0.50041298
   0.28209335  0.27801619  0.49668741
   0.24578371  0.75620926  0.00711892
   0.23185281  0.24602861  0.00303843
   0.71096071  0.72288171  0.50557395
   0.73051792  0.28573755  0.50859806
   0.76305120  0.76912495 -0.00528383
   0.77902804  0.23436797  0.00170873
   0.25463352  0.49950171  0.76155583
   0.24771129  0.99939705  0.72446122
   0.24745319  0.50762327  0.23177832
   0.25278944  1.00618743  0.28657877
   0.74935160  0.50510742  0.77360500
   0.75005342  1.00347342  0.71262700
   0.74467945  0.51255942  0.23851820
   0.74839266  1.01632420  0.29726788
Direct configuration=    11
   0.00097884  0.50053876  0.99705297
   0.00295232 -0.00075460  1.00340470
   0.49823536  0.00158967  1.00266542
  -0.00747298  0.49041173  0.49973604
  -0.00443519 -0.00311106  0.49977812
   0.49631124  0.49946775  0.50077409
   0.49758606 -0.00248261  0.49900770
   0.49855546  0.49843947  1.00334535
   0.25561570  0.75183773  0.74711417
   0.24457767  0.24971514  0.74529855
   0.25087547  0.75212899  0.25435377
   0.25289460  0.25535539  0.25243916
   0.75221958  0.75106689  0.74477184
   0.74058919  0.25241435  0.74230009
   0.74390275  0.75339205  0.25540670
   0.75417270  0.26301502  0.24771617
   0.99423613  0.74318697  0.71254160
   1.00589096  0.25524352  0.72095693
   0.98909943  0.75335552  0.29458944
   0.99218160  0.25814825  0.28713954
   0.49816954  0.75215348  0.76706219
   0.50545159  0.25422611  0.77625211
   0.49599834  0.74601769  0.23848801
   0.49343010  0.26222096  0.23938745
   0.28214959  0.73170157  0.50091736
   0.28240743  0.27759491  0.49630236
   0.24723878  0.75558721  0.00743962
   0.23105464  0.24760263  0.00394943
   0.70985332  0.72359835  0.50487004
   0.73211404  0.28842217  0.51085320
   0.76090601  0.76995359 -0.00614320
   0.78077252  0.23375969  0.00283678
   0.25591422  0.49849126  0.76168558
   0.24671737  0.99863478  0.72478188
   0.24735886  0.50912704  0.23416868
   0.25213583  1.00667463  0.28856847
   0.74951292  0.50575481  0.77291988
   0.75018564  1.00470349  0.71409214
   0.74503231  0.51422478  0.24006757
   0.74884030  1.01782862  0.29871932
Direct configuration=    12
   0.00112416  0.50052671  0.99682583
   0.00325522 -0.00051323  1.00408790
   0.49813812  0.00191095  1.00293267
  -0.00786217  0.49019485  0.49959106
  -0.00488063 -0.00367944  0.49956833
   0.49577837  0.49991040  0.50040767
   0.49704544 -0.00214994  0.49896390
   0.49853341  0.49822119  1.00379468
   0.25699042  0.75186132  0.74742015
   0.24317559  0.24945514  0.74637699
   0.25090968  0.75304798  0.25458258
   0.25341549  0.25674552  0.25212601
   0.75301812  0.75103202  0.74434548
   0.73860553  0.25210291  0.74229475
   0.74422349  0.75352616  0.25498855
   0.75477370  0.26425266  0.24585130
   0.99329141  0.74425604  0.71258636
   1.00754026  0.25571629  0.72290151
   0.98988732  0.75331138  0.29537699
   0.99280932  0.25820100  0.28803513
   0.49816772  0.75240004  0.76807878
   0.50629798  0.25365198  0.77867764
   0.49511832  0.74801396  0.23974355
   0.49120402  0.26414367  0.23939331
   0.28186751  0.73407806  0.50103074
   0.28209753  0.27695229  0.49750521
   0.24813975  0.75581816  0.00754825
   0.23129445  0.24968180  0.00489508
   0.70920305  0.72461488  0.50322190
   0.73350973  0.29124572  0.51216631
   0.75901422  0.77186123 -0.00607396
   0.78190354  0.23410206  0.00414254
   0.25575084  0.49841069  0.76168607
   0.24541734  0.99863575  0.72543917
   0.24771562  0.50969211  0.23687949
   0.25147271  1.00608155  0.29038838
   0.74932680  0.50543255  0.77227565
   0.75073666  1.00641370  0.71507171
   0.74629786  0.51580239  0.24234906
   0.74849532  1.01919084  0.29970954
Direct configuration=    13
   0.00149787  0.50045775  0.99660609
   0.00364280 -0.00039085  1.00465426
   0.49799530  0.00259106  1.00294023
  -0.00856020  0.49012062  0.49935397
  -0.00552676 -0.00408889  0.49925287
   0.49509141  0.50042291  0.50012708
   0.49646048 -0.00181165  0.49886410
   0.49831782  0.49860138  1.00411023
   0.25849483  0.75171001  0.74779774
   0.24196802  0.24916896  0.74663310
   0.25060216  0.75413737  0.25475282
   0.25346048  0.25819956  0.25179512
   0.75341413  0.75061796  0.74383057
   0.73690755  0.25181464  0.74226550
   0.74479258  0.75374865  0.25398845
   0.75534664  0.26504401  0.24412185
   0.99290331  0.74497732  0.71269791
   1.00925764  0.25679756  0.72541922
   0.99097867  0.75349405  0.29588764
   0.99342263  0.25817991  0.28889626
   0.49752643  0.75297032  0.76876450
   0.50720261  0.25332972  0.78163261
   0.49369676  0.75032677  0.24094923
   0.48926420  0.26652936  0.23907389
   0.28199602  0.73626794  0.50102801
   0.28110271  0.27643629  0.49870571
   0.24853244  0.75582898  0.00726657
   0.23193276  0.25053899  0.00598167
   0.70780134  0.72505785  0.50107083
   0.73457873  0.29436294  0.51237831
   0.75723202  0.77281956 -0.00427579
   0.78288368  0.23466396  0.00613837
   0.25576132  0.49807683  0.76179553
   0.24380255  0.99832686  0.72667489
   0.24766709  0.51091558  0.23989981
   0.25074797  1.00578704  0.29137332
   0.74849086  0.50453668  0.77149718
   0.75113861  1.00823508  0.71658825
   0.74672118  0.51638895  0.24501173
   0.74799944  1.02004799  0.30007279
Direct configuration=    14
   0.00188985  0.50063583  0.99660329
   0.00411843 -0.00026642  1.00536151
   0.49787175  0.00323334  1.00282128
  -0.00924067  0.48973101  0.49899798
  -0.00640554 -0.00472288  0.49889765
   0.49451323  0.50103594  0.49993331
   0.49565997 -0.00162564  0.49896031
   0.49859210  0.49856432  1.00446401
   0.26054140  0.75143558  0.74772793
   0.24081273  0.24932330  0.74709345
   0.25023074  0.75514442  0.25523415
   0.25344575  0.25931151  0.25168748
   0.75393095  0.74977628  0.74299566
   0.73516257  0.25178386  0.74222224
   0.74534287  0.75425188  0.25260072
   0.75582024  0.26552796  0.24230928
   0.99275044  0.74525577  0.71320874
   1.01133677  0.25882725  0.72807243
   0.99256363  0.75363587  0.29568408
   0.99402424  0.25768763  0.28894679
   0.49658328  0.75351087  0.76889277
   0.50797262  0.25346861  0.78468117
   0.49295908  0.75287756  0.24190930
   0.48880975  0.26839441  0.23972362
   0.28152680  0.73805585  0.50183298
   0.28023171  0.27512459  0.49977819
   0.24835280  0.75631379  0.00629699
   0.23234744  0.25102657  0.00779887
   0.70703918  0.72600827  0.49927836
   0.73586723  0.29756798  0.51230548
   0.75548196  0.77439080 -0.00194931
   0.78237227  0.23565436  0.00896858
   0.25597134  0.49851380  0.76204577
   0.24308226  0.99770015  0.72780568
   0.24715995  0.51118112  0.24386477
   0.25016426  1.00577868  0.29195618
   0.74792339  0.50409345  0.77086918
   0.75133974  1.01019297  0.71797148
   0.74765574  0.51598478  0.24792652
   0.74689629  1.02097393  0.29999495
Direct configuration=    15
   0.00223548  0.50091205  0.99647329
   0.00465938 -0.00014268  1.00607488
   0.49766718  0.00400652  1.00277615
  -0.00990644  0.48939854  0.49899350
  -0.00727141 -0.00506994  0.49877281
   0.49375132  0.50175308  0.49955357
   0.49510819 -0.00175296  0.49933465
   0.49835008  0.49834884  1.00501410
   0.26262028  0.75169117  0.74729743
   0.23966856  0.24908751  0.74707733
   0.24984414  0.75604853  0.25584516
   0.25329821  0.26024192  0.25166682
   0.75433941  0.74897780  0.74241809
   0.73383461  0.25135733  0.74239950
   0.74643387  0.75515158  0.25160915
   0.75636094  0.26552417  0.24033214
   0.99279043  0.74576298  0.71318435
   1.01310924  0.26010268  0.73086139
   0.99323270  0.75370356  0.29435960
   0.99443283  0.25697911  0.28827150
   0.49543616  0.75428569  0.76874882
   0.50720895  0.25362593  0.78788902
   0.49335524  0.75511174  0.24253097
   0.48948678  0.27101502  0.24050401
   0.28088802  0.73972093  0.50325058
   0.27866557  0.27391053  0.50234542
   0.24786768  0.75702566  0.00514297
   0.23290172  0.25106774  0.00919619
   0.70668924  0.72790858  0.49682494
   0.73676885  0.30112001  0.51214689
   0.75382399  0.77525455  0.00110194
   0.78136115  0.23740754  0.01138609
   0.25637048  0.49874945  0.76340047
   0.24270544  0.99795873  0.72933741
   0.24665213  0.51124020  0.24803338
   0.24918837  1.00620421  0.29149026
   0.74786558  0.50458717  0.77026649
   0.75125685  1.01112828  0.71902362
   0.74845674  0.51496177  0.24971622
   0.74573814  1.02220526  0.30012609
Direct configuration=    16
   0.00253332  0.50114102  0.99648765
   0.00526732  0.00000266  1.00659673
   0.49749411  0.00461605  1.00289597
  -0.01094542  0.48910413  0.49883726
  -0.00801877 -0.00544570  0.49891926
   0.49313801  0.50278759  0.49926559
   0.49443553 -0.00193344  0.49988003
   0.49842739  0.49839108  1.00555374
   0.26458585  0.75184329  0.74686083
   0.23907632  0.24868993  0.74711257
   0.24918109  0.75701220  0.25592100
   0.25306225  0.26122763  0.25140984
   0.75500271  0.74778739  0.74131790
   0.73257478  0.25122024  0.74254951
   0.74761184  0.75631160  0.25015844
   0.75694674  0.26483331  0.23881481
   0.99265236  0.74656352  0.71315294
   1.01443618  0.26095997  0.73445628
   0.99337840  0.75400034  0.29237118
   0.99556418  0.25652397  0.28787449
   0.49380325  0.75513900  0.76909504
   0.50631601  0.25453734  0.79239537
   0.49438087  0.75685192  0.24309113
   0.49128653  0.27296295  0.24156487
   0.27955941  0.74155332  0.50448137
   0.27696643  0.27220615  0.50472455
   0.24736022  0.75876276  0.00396297
   0.23275121  0.25108459  0.01031261
   0.70653454  0.73096973  0.49566141
   0.73736270  0.30484754  0.51239032
   0.75196636  0.77681373  0.00444970
   0.78026104  0.24007630  0.01334013
   0.25735427  0.49929850  0.76477560
   0.24177894  0.99847113  0.73101006
   0.24607546  0.51084678  0.25148721
   0.24927901  1.00659881  0.29043252
   0.74753354  0.50602453  0.76999966
   0.75089762  1.01147008  0.72010498
   0.74856879  0.51352168  0.25105833
   0.74371325  1.02400641  0.29916831
Direct configuration=    17
   0.00297905  0.50160232  0.99635445
   0.00579629  0.00033937  1.00701040
   0.49737019  0.00495769  1.00325390
  -0.01187927  0.48922144  0.49847398
  -0.00862943 -0.00562186  0.49906467
   0.49252183  0.50411418  0.49890602
   0.49364983 -0.00222436  0.50057162
   0.49863610  0.49842314  1.00558317
   0.26606093  0.75192497  0.74636904
   0.23865336  0.24838170  0.74674628
   0.24797675  0.75850749  0.25615092
   0.25347085  0.26221078  0.25171382
   0.75608013  0.74600963  0.73960957
   0.73118380  0.25144515  0.74203630
   0.74928614  0.75746071  0.24910236
   0.75752717  0.26375507  0.23787770
   0.99325793  0.74823386  0.71385553
   1.01410092  0.26199076  0.73864283
   0.99277142  0.75478903  0.29002315
   0.99696906  0.25576357  0.28865732
   0.49238151  0.75581200  0.76962893
   0.50539776  0.25545890  0.79656044
   0.49565352  0.75852686  0.24372404
   0.49352582  0.27529430  0.24388343
   0.27801103  0.74309200  0.50524980
   0.27631852  0.27023094  0.50786898
   0.24627492  0.76036093  0.00406811
   0.23257963  0.25035013  0.01093124
   0.70633159  0.73390828  0.49540077
   0.73744136  0.30771184  0.51281764
   0.74925792  0.77846076  0.00723873
   0.77881360  0.24346134  0.01409469
   0.25888932  0.49981143  0.76678641
   0.24055658  0.99947562  0.73345712
   0.24493826  0.51021743  0.25563420
   0.24986465  1.00767984  0.28978067
   0.74687420  0.50819793  0.76951674
   0.75043834  1.01156471  0.72180110
   0.74856306  0.51166249  0.25226494
   0.74189095  1.02573998  0.29806207
Direct configuration=    18
   0.00332333  0.50191798  0.99646821
   0.00618252  0.00098407  1.00711667
   0.49703491  0.00510495  1.00379672
  -0.01294840  0.48938018  0.49780465
  -0.00934804 -0.00545235  0.49946697
   0.49180777  0.50527761  0.49879345
   0.49273592 -0.00252452  0.50104606
   0.49849921  0.49860281  1.00526789
   0.26738907  0.75188625  0.74495026
   0.23853153  0.24772081  0.74625325
   0.24707561  0.76015329  0.25639311
   0.25349659  0.26315571  0.25200497
   0.75733647  0.74398747  0.73769945
   0.73003260  0.25117558  0.74106675
   0.75099100  0.75832756  0.24812557
   0.75794227  0.26231426  0.23825839
   0.99298915  0.75114825  0.71463841
   1.01294433  0.26242088  0.74274570
   0.99184559  0.75604356  0.28773660
   0.99860279  0.25487187  0.28936777
   0.49204568  0.75672678  0.76978841
   0.50368690  0.25675765  0.80072256
   0.49717369  0.76042570  0.24492326
   0.49702491  0.27745132  0.24705842
   0.27626447  0.74415347  0.50599801
   0.27637503  0.26735306  0.51143768
   0.24446263  0.76167721  0.00497183
   0.23277332  0.24982232  0.01208298
   0.70574465  0.73678556  0.49592760
   0.73738628  0.30922216  0.51379926
   0.74623938  0.77968027  0.00989244
   0.77754861  0.24693968  0.01226764
   0.25966595  0.50042110  0.76870580
   0.24004607  1.00067611  0.73635896
   0.24334322  0.50975736  0.26027694
   0.25029681  1.00847257  0.28869814
   0.74623963  0.51146036  0.77028443
   0.75059063  1.01150688  0.72417088
   0.74845389  0.51028724  0.25331648
   0.73943070  1.02644922  0.29729339
Direct configuration=    19
   0.00347353  0.50223330  0.99660206
   0.00653154  0.00153465  1.00718891
   0.49654079  0.00512970  1.00435674
  -0.01385382  0.48940032  0.49697243
  -0.00985066 -0.00520308  0.49967396
   0.49103567  0.50629073  0.49828025
   0.49196782 -0.00281639  0.50126550
   0.49825444  0.49894460  1.00501673
   0.26892925  0.75193665  0.74378522
   0.23858619  0.24691687  0.74584442
   0.24646542  0.76173365  0.25613798
   0.25292083  0.26420992  0.25240899
   0.75882329  0.74195294  0.73513533
   0.72900130  0.25048658  0.74000116
   0.75227738  0.75888250  0.24721577
   0.75813870  0.26037445  0.23883390
   0.99156693  0.75422081  0.71566113
   1.01084991  0.26320903  0.74708706
   0.98991681  0.75701147  0.28569250
   1.00014179  0.25477224  0.29083298
   0.49277845  0.75804175  0.77022411
   0.50272038  0.25803875  0.80398429
   0.49842296  0.76219888  0.24588105
   0.49986354  0.27913008  0.24986492
   0.27523824  0.74521915  0.50666421
   0.27631789  0.26471159  0.51526061
   0.24263867  0.76265589  0.00665677
   0.23289298  0.24826868  0.01348861
   0.70474597  0.73990618  0.49798263
   0.73672896  0.31099745  0.51492581
   0.74392904  0.78013176  0.01163951
   0.77648548  0.25093849  0.00854638
   0.26052034  0.50194007  0.77027034
   0.23942317  1.00125953  0.73956863
   0.24190534  0.50876644  0.26431929
   0.25040207  1.00955568  0.28781129
   0.74586964  0.51481184  0.77303007
   0.75073236  1.01136343  0.72744820
   0.74775571  0.50918104  0.25481064
   0.73713191  1.02665731  0.29573279
Direct configuration=    20
   0.00381555  0.50243856  0.99639815
   0.00674883  0.00207990  1.00685368
   0.49603662  0.00517385  1.00487332
  -0.01471421  0.48980230  0.49599363
  -0.01031282 -0.00492838  0.49966401
   0.49028793  0.50713843  0.49784099
   0.49129427 -0.00279761  0.50139527
   0.49809070  0.49917078  1.00464438
   0.27006253  0.75144831  0.74216936