unknown system                          
           1
     7.815874    0.000000    0.000000
     0.000000    7.815868    0.000000
     0.000000    0.000000    7.966359
   Ba   Sr   Ti   O 
     4     4     8    24
Direct configuration=     1
   0.99999996  0.99999998  0.00000003
   0.50000006  0.99999998  0.00000005
   0.99999997  0.50000002  0.00000000
   0.50000000  0.50000001  0.49999999
   1.00000000  1.00000000  0.50000000
   0.99999996  0.50000001  0.49999996
   0.50000002  0.99999999  0.50000004
   0.50000002  0.50000000  0.00000002
   0.24992133  0.24992135  0.25264630
   0.24992138  0.24992136  0.74735384
   0.24992137  0.75007863  0.25264619
   0.24992135  0.75007866  0.74735380
   0.75007863  0.24992137  0.25264615
   0.75007868  0.24992135  0.74735373
   0.75007866  0.75007868  0.25264626
   0.75007865  0.75007862  0.74735380
   0.25346209  0.25346212  0.99999996
   0.24715533  0.24715529  0.50000009
   0.25346209  0.74653789  0.99999983
   0.24715534  0.75284471  0.50000011
   0.74653790  0.25346211  0.00000003
   0.75284467  0.24715528  0.49999990
   0.74653790  0.74653789  0.00000005
   0.75284466  0.75284472  0.50000001
   0.24972991  0.00000012  0.25590903
   0.24972992  1.00000000  0.74409089
   0.24926969  0.49999987  0.25310534
   0.24926966  0.50000001  0.74689461
   0.75027008  0.00000001  0.25590906
   0.75027006  0.99999999  0.74409095
   0.75073032  0.50000001  0.25310537
   0.75073032  0.50000000  0.74689467
   0.00000005  0.24972992  0.25590913
   0.00000014  0.24972991  0.74409088
   0.99999992  0.75027007  0.25590913
   0.00000014  0.75027008  0.74409086
   0.49999994  0.24926967  0.25310532
   0.49999987  0.24926969  0.74689466
   0.50000009  0.75073032  0.25310531
   0.49999985  0.75073031  0.74689465
Direct configuration=     2
   0.99988890  0.99994775  0.00039846
   0.50010786  1.00014559 -0.00002992
   0.99997719  0.49992266  0.00008172
   0.49989769  0.50011881  0.49969254
   1.00010681  1.00000943  0.50028953
   0.99996832  0.49986677  0.50024748
   0.50005607  1.00017570  0.50015467
   0.49994357  0.49988216  0.00008489
   0.25018411  0.24990323  0.25313796
   0.24976244  0.24962196  0.74747695
   0.25002005  0.75053276  0.25264979
   0.24999382  0.75043246  0.74701680
   0.75020610  0.24968751  0.25283704
   0.74989172  0.24991342  0.74701254
   0.75003705  0.75036166  0.25232859
   0.75076612  0.74979958  0.74711999
   0.25389397  0.25377879  0.99958673
   0.24723083  0.24711579  0.49956481
   0.25324263  0.74590040  1.00058398
   0.24743575  0.75287052  0.50034082
   0.74663944  0.25393187 -0.00012370
   0.75250623  0.24704728  0.50052740
   0.74692287  0.74595565  0.00024273
   0.75270206  0.75286108  0.49969258
   0.24998238 -0.00074303  0.25559141
   0.24950168  1.00022721  0.74454823
   0.24961670  0.50046642  0.25291889
   0.24910753  0.50059474  0.74688849
   0.75022898  0.00027616  0.25634800
   0.75006771  1.00076267  0.74410073
   0.75200722  0.50010225  0.25333606
   0.75100621  0.49972142  0.74801797
   0.00066980  0.25010664  0.25513294
  -0.00014203  0.24919491  0.74359848
   1.00026697  0.75080643  0.25583507
  -0.00008736  0.75071333  0.74455736
   0.49967901  0.24890248  0.25324993
   0.50019456  0.24904729  0.74673015
   0.49946765  0.75093195  0.25358342
   0.50011737  0.75073002  0.74596544
Direct configuration=     3
   0.99993575  1.00010908  0.00083757
   0.50051131  1.00012143 -0.00014756
   1.00028626  0.49962909  0.00024564
   0.49977641  0.50023304  0.49939375
   1.00031678  1.00001171  0.50064856
   0.99995387  0.50008891  0.50048110
   0.50013765  1.00022824  0.50007690
   0.49945625  0.49979351 -0.00000616
   0.25070467  0.24964786  0.25340260
   0.25027193  0.24914266  0.74796198
   0.25013851  0.75140634  0.25217184
   0.25026610  0.75084366  0.74683386
   0.75001541  0.24945355  0.25223309
   0.74956298  0.24994513  0.74603706
   0.75049475  0.75066968  0.25261524
   0.75140033  0.74940721  0.74726250
   0.25452716  0.25518756  0.99860444
   0.24678022  0.24804611  0.49904081
   0.25371369  0.74482921  1.00048807
   0.24706677  0.75308838  0.50075532
   0.74715438  0.25379884  0.00009822
   0.75232043  0.24620583  0.50062411
   0.74725985  0.74563470 -0.00037969
   0.75204538  0.75306694  0.49871617
   0.24995191 -0.00128135  0.25488894
   0.24846316  0.99987752  0.74434299
   0.24902548  0.50143852  0.25253429
   0.25029986  0.50175636  0.74618429
   0.75004460  0.00057592  0.25639956
   0.75110161  1.00193841  0.74476724
   0.75287419  0.49961298  0.25254908
   0.75046138  0.49980035  0.74898025
   0.00099487  0.24999472  0.25392397
  -0.00171829  0.24799076  0.74310111
   0.99960912  0.75145818  0.25441329
  -0.00006756  0.75136411  0.74522109
   0.49936398  0.24898006  0.25309313
   0.50001371  0.24884924  0.74610652
   0.49893813  0.75116187  0.25395094
   0.50076406  0.75032544  0.74522760
Direct configuration=     4
   1.00020685  1.00019790  0.00109768
   0.50094363  1.00054331 -0.00010891
   1.00051733  0.49894698  0.00005264
   0.49972954  0.50048502  0.49907061
   1.00098687  1.00010596  0.50112552
   0.99977073  0.50024009  0.50041702
   0.50002707  1.00018214  0.50008291
   0.49900793  0.49917849 -0.00005980
   0.25125432  0.24962918  0.25346640
   0.25056068  0.24845514  0.74853934
   0.25024629  0.75207454  0.25173231
   0.25084849  0.75124373  0.74694164
   0.75020331  0.24924560  0.25155792
   0.74955128  0.25024741  0.74496895
   0.75115069  0.75107081  0.25275847
   0.75207609  0.74893806  0.74759207
   0.25482489  0.25756323  0.99762672
   0.24655626  0.24845557  0.49950537
   0.25340696  0.74392150  0.99997184
   0.24686580  0.75173671  0.50082332
   0.74701406  0.25349222  0.00083461
   0.75237089  0.24625895  0.50070198
   0.74766664  0.74571298 -0.00125291
   0.75161476  0.75307500  0.49813559
   0.24929711 -0.00147252  0.25426507
   0.24726797  0.99921351  0.74387519
   0.24853290  0.50173497  0.25160034
   0.25162296  0.50346284  0.74579152
   0.75049832  0.00069051  0.25690329
   0.75274268  1.00349703  0.74543471
   0.75399262  0.49908973  0.25216598
   0.75009525  0.49941705  0.74934471
   0.00106660  0.24975752  0.25237799
  -0.00248205  0.24712326  0.74313703
   0.99924635  0.75199593  0.25329195
   0.00023949  0.75218164  0.74570445
   0.49919960  0.24923078  0.25329417
   0.49960584  0.24838147  0.74655262
   0.49862257  0.75064743  0.25418132
   0.50150222  0.74994878  0.74413492
Direct configuration=     5
   1.00037257  1.00018740  0.00136602
   0.50135020  1.00084293 -0.00003475
   1.00089230  0.49831031 -0.00006718
   0.49980854  0.50110404  0.49871224
   1.00160472  1.00012027  0.50174191
   0.99963839  0.50029884  0.50050647
   0.50026150  1.00022801  0.50031484
   0.49846451  0.49875845  0.00000642
   0.25162645  0.24986892  0.25376025
   0.25082212  0.24820665  0.74877135
   0.25042203  0.75166896  0.25104703
   0.25158512  0.75144943  0.74657926
   0.75071152  0.24900115  0.25060002
   0.74960060  0.25078922  0.74337767
   0.75179193  0.75116616  0.25260551
   0.75227316  0.74804177  0.74780223
   0.25432777  0.25999856  0.99658265
   0.24636908  0.24841064  0.49903359
   0.25245166  0.74265000  0.99940049
   0.24769183  0.75025829  0.50065398
   0.74652148  0.25355655  0.00139924
   0.75265585  0.24661744  0.50071015
   0.74825134  0.74551881 -0.00143625
   0.75201130  0.75275325  0.49764869
   0.24812466 -0.00126502  0.25327341
   0.24568915  0.99862088  0.74336764
   0.24752402  0.50137226  0.25091736
   0.25300858  0.50506165  0.74568332
   0.75137752  0.00093792  0.25864966
   0.75337025  1.00408046  0.74661246
   0.75555146  0.49834328  0.25218380
   0.74949877  0.49986912  0.74936280
   0.00169323  0.25007776  0.25045752
  -0.00341614  0.24751316  0.74274185
   0.99791614  0.75208650  0.25270720
  -0.00029237  0.75261970  0.74594843
   0.49937983  0.24948323  0.25418915
   0.49837945  0.24785198  0.74661691
   0.49872770  0.75004540  0.25382085
   0.50226200  0.74946646  0.74286039
Direct configuration=     6
   1.00076108  0.99992152  0.00157993
   0.50183919  1.00132849 -0.00010961
   1.00123837  0.49769370 -0.00024306
   0.50001969  0.50195227  0.49849388
   1.00198929  1.00015400  0.50199123
   0.99965409  0.50051881  0.50100219
   0.50050178  1.00027468  0.50058868
   0.49746804  0.49833597  0.00037640
   0.25201367  0.25005071  0.25440149
   0.25064057  0.24778127  0.74889026
   0.25081645  0.75125884  0.25011839
   0.25255490  0.75180024  0.74672466
   0.75071023  0.24870778  0.25018419
   0.74976218  0.25148246  0.74194607
   0.75220028  0.75069841  0.25267400
   0.75248088  0.74714434  0.74775066
   0.25447589  0.26281067  0.99626022
   0.24611403  0.24829189  0.49925532
   0.25202110  0.74156934  0.99902721
   0.24883787  0.74818940  0.49969147
   0.74625531  0.25317119  0.00228805
   0.75207295  0.24648359  0.50020265
   0.74845109  0.74581264 -0.00069326
   0.75278447  0.75238912  0.49663931
   0.24755029 -0.00097348  0.25291941
   0.24428724  0.99878773  0.74241720
   0.24575442  0.50054567  0.25037968
   0.25483823  0.50572602  0.74578564
   0.75230464  0.00179859  0.26095454
   0.75357031  1.00461034  0.74707716
   0.75784584  0.49780886  0.25174268
   0.74785455  0.50078442  0.74955234
   0.00265047  0.25046795  0.24908431
  -0.00300997  0.24748897  0.74145579
   0.99714419  0.75282327  0.25155948
  -0.00171641  0.75327765  0.74549626
   0.49997377  0.24933100  0.25561015
   0.49738884  0.24768236  0.74632026
   0.49887025  0.74931570  0.25401304
   0.50295000  0.74961383  0.74172215
Direct configuration=     7
   1.00141285  0.99972905  0.00192271
   0.50198207  1.00176420 -0.00021196
   1.00176986  0.49686218 -0.00039814
   0.50042079  0.50313398  0.49795724
   1.00264695  1.00012623  0.50211341
   0.99976975  0.50039324  0.50144786
   0.50085960  0.99999316  0.50073310
   0.49627757  0.49810223  0.00054506
   0.25195306  0.24997428  0.25525474
   0.25034662  0.24761750  0.74888272
   0.25109848  0.75089236  0.24928728
   0.25352205  0.75208961  0.74692374
   0.75077630  0.24817999  0.25005950
   0.74994383  0.25190153  0.74049371
   0.75198436  0.75020166  0.25264924
   0.75286147  0.74586968  0.74808431
   0.25521633  0.26558992  0.99558618
   0.24607559  0.24860464  0.49855261
   0.25186284  0.74064599  0.99843994
   0.24886033  0.74614615  0.49890788
   0.74591840  0.25266941  0.00255072
   0.75174395  0.24671164  0.49972394
   0.74785359  0.74618256 -0.00082135
   0.75407764  0.75155362  0.49628950
   0.24806952 -0.00077853  0.25294878
   0.24371461  0.99896999  0.74240679
   0.24473832  0.50012527  0.25063920
   0.25606077  0.50605361  0.74609418
   0.75302371  0.00205293  0.26273565
   0.75307066  1.00553088  0.74775736
   0.76047206  0.49714435  0.25139409
   0.74718404  0.50180402  0.74890540
   0.00289060  0.25092922  0.24790431
  -0.00242877  0.24726096  0.74023766
   0.99634577  0.75408964  0.24974276
  -0.00284867  0.75373084  0.74476014
   0.50062032  0.24930330  0.25631501
   0.49649566  0.24786660  0.74586860
   0.49911046  0.74817248  0.25458553
   0.50304166  0.74991252  0.74056017
Direct configuration=     8
   1.00183517  0.99936927  0.00222173
   0.50221880  1.00219738 -0.00031453
   1.00244781  0.49617743 -0.00040454
   0.50057970  0.50428476  0.49733640
   1.00334792  1.00018115  0.50214143
   0.99999020  0.50018643  0.50189207
   0.50135464  0.99955686  0.50101393
   0.49500515  0.49774347  0.00063856
   0.25222385  0.25034373  0.25626040
   0.25007278  0.24728718  0.74855906
   0.25140730  0.75001469  0.24817071
   0.25448402  0.75178041  0.74714810
   0.75073780  0.24752313  0.24993050
   0.75047296  0.25249453  0.73911913
   0.75150767  0.74987798  0.25248000
   0.75355736  0.74495409  0.74805976
   0.25724901  0.26752216  0.99474558
   0.24597663  0.24874344  0.49809551
   0.25339663  0.74085665  0.99747976
   0.24896160  0.74447448  0.49770052
   0.74483640  0.25201384  0.00363042
   0.75267946  0.24715197  0.49978032
   0.74646449  0.74596898 -0.00106930
   0.75539793  0.75139326  0.49688929
   0.24882606 -0.00042655  0.25277662
   0.24417438  0.99897947  0.74350341
   0.24365602  0.49935928  0.25131760
   0.25665122  0.50613719  0.74510195
   0.75316952  0.00236430  0.26404680
   0.75204764  1.00659724  0.74834076
   0.76317229  0.49666845  0.25180152
   0.74690995  0.50203536  0.74949932
   0.00283608  0.25090046  0.24705579
  -0.00196861  0.24766608  0.73862645
   0.99613316  0.75579008  0.24846631
  -0.00355537  0.75442190  0.74366605
   0.50089782  0.24999637  0.25712959
   0.49513080  0.24830274  0.74556148
   0.49894801  0.74732090  0.25453719
   0.50263168  0.75168952  0.74012010
Direct configuration=     9
   1.00204794  0.99912169  0.00257010
   0.50259678  1.00262283 -0.00050130
   1.00292072  0.49554872 -0.00046469
   0.50034925  0.50535597  0.49653279
   1.00407390  1.00018254  0.50219542
   1.00015427  0.50019072  0.50220015
   0.50180512  0.99942305  0.50092997
   0.49353476  0.49742977  0.00067911
   0.25254991  0.25078127  0.25708112
   0.25029728  0.24722753  0.74849595
   0.25150495  0.74941716  0.24742485
   0.25588376  0.75093337  0.74738918
   0.75086759  0.24689933  0.24964784
   0.75101112  0.25274900  0.73752647
   0.75119833  0.74952654  0.25273392
   0.75426035  0.74469734  0.74822820
   0.25944864  0.26858465  0.99432967
   0.24569701  0.25038108  0.49807136
   0.25449928  0.74164501  0.99657589
   0.24868606  0.74317073  0.49628306
   0.74354457  0.25082415  0.00430553
   0.75284460  0.24785932  0.50012615
   0.74400712  0.74514549 -0.00045755
   0.75668648  0.75093093  0.49791489
   0.24962420 -0.00008334  0.25265304
   0.24431324  0.99961467  0.74422817
   0.24284275  0.49877535  0.25189885
   0.25674882  0.50587871  0.74435723
   0.75311367  0.00288827  0.26440225
   0.75060991  1.00751942  0.74873239
   0.76623395  0.49698869  0.25191857
   0.74680669  0.50166026  0.75071620
   0.00306028  0.25124402  0.24643367
  -0.00076529  0.24934676  0.73707831
   0.99593355  0.75668303  0.24732953
  -0.00433135  0.75487075  0.74248504
   0.50130117  0.25019725  0.25806562
   0.49351182  0.24832368  0.74507054
   0.49950267  0.74601027  0.25495192
   0.50277428  0.75421037  0.73987571
Direct configuration=    10
   1.00239039  0.99887920  0.00281957
   0.50290421  1.00287048 -0.00070828
   1.00361949  0.49522252 -0.00077400
   0.50026527  0.50657635  0.49559095
   1.00489066  1.00026389  0.50202101
   1.00065574  0.50025323  0.50264348
   0.50234857  0.99921870  0.50056117
   0.49223776  0.49693689  0.00079335
   0.25247695  0.25141876  0.25779585
   0.25011489  0.24749586  0.74845087
   0.25189874  0.74896538  0.24686395
   0.25722253  0.74967864  0.74753726
   0.75070116  0.24671377  0.24891695
   0.75108968  0.25263107  0.73624697
   0.75115942  0.74910887  0.25310527
   0.75493594  0.74474149  0.74826114
   0.26142583  0.26941401  0.99394066
   0.24530634  0.25239994  0.49842645
   0.25592212  0.74261779  0.99584689
   0.24697031  0.74231744  0.49487250
   0.74229882  0.24995680  0.00487383
   0.75300936  0.24836879  0.50098191
   0.74171457  0.74396748 -0.00009218
   0.75761108  0.74971427  0.49879647
   0.25042656  0.00069211  0.25333473
   0.24437177  0.99987374  0.74462435
   0.24269273  0.49914428  0.25210340
   0.25636475  0.50461775  0.74370403
   0.75264505  0.00329798  0.26500249
   0.74961737  1.00833462  0.74926516
   0.76823095  0.49775562  0.25207677
   0.74643572  0.50021589  0.75264157
   0.00326718  0.25132195  0.24556245
   0.00050425  0.25161766  0.73535876
   0.99605045  0.75742486  0.24652676
  -0.00509014  0.75559127  0.74117348
   0.50128574  0.25039334  0.25901251
   0.49233909  0.24728196  0.74410038
   0.49971823  0.74504438  0.25486724
   0.50244802  0.75662270  0.74038526
Direct configuration=    11
   1.00265256  0.99855078  0.00285880
   0.50319665  1.00345387 -0.00082368
   1.00422455  0.49488423 -0.00121325
   0.50005672  0.50779245  0.49455842
   1.00568379  1.00026392  0.50181338
   1.00136016  0.50053864  0.50276743
   0.50290874  0.99893047  0.50003517
   0.49097218  0.49635792  0.00076853
   0.25257829  0.25223270  0.25845604
   0.24967680  0.24780011  0.74823408
   0.25231817  0.74861315  0.24662459
   0.25832883  0.74819298  0.74772937
   0.75070447  0.24708495  0.24827236
   0.75123466  0.25248675  0.73547655
   0.75129046  0.74869616  0.25309216
   0.75528350  0.74517130  0.74840255
   0.26306569  0.27013480  0.99322692
   0.24460739  0.25480042  0.49974969
   0.25755912  0.74330952  0.99593210
   0.24592250  0.74299326  0.49400638
   0.74104484  0.24973530  0.00603565
   0.75336110  0.24949257  0.50261653
   0.73967038  0.74254352 -0.00000824
   0.75761363  0.74861599  0.49908271
   0.25209169  0.00198778  0.25417653
   0.24418957  0.99999489  0.74461969
   0.24250876  0.49989783  0.25260041
   0.25589522  0.50291360  0.74282310
   0.75190208  0.00303265  0.26476111
   0.74833175  1.00836947  0.74970507
   0.76874007  0.49940471  0.25255056
   0.74586118  0.49903791  0.75377675
   0.00363445  0.25186953  0.24515286
   0.00139505  0.25383689  0.73438959
   0.99601483  0.75831123  0.24567175
  -0.00579407  0.75608646  0.74013746
   0.50137067  0.25065558  0.25962055
   0.49223386  0.24624478  0.74265239
   0.50002606  0.74379065  0.25441270
   0.50008612  0.75874877  0.74074935
Direct configuration=    12
   1.00288795  0.99832814  0.00297051
   0.50344643  1.00371230 -0.00123562
   1.00462631  0.49466030 -0.00175530
   0.49985215  0.50909340  0.49339830
   1.00591598  1.00016409  0.50173648
   1.00221903  0.50090320  0.50276083
   0.50334680  0.99822814  0.49971227
   0.48978248  0.49596844  0.00081649
   0.25294469  0.25324067  0.25890933
   0.24916888  0.24830486  0.74803915
   0.25189306  0.74815969  0.24645443
   0.25914753  0.74666401  0.74768496
   0.75059905  0.24711474  0.24797480
   0.75109316  0.25177832  0.73483285
   0.75174981  0.74851184  0.25248352
   0.75587690  0.74520877  0.74868137
   0.26413343  0.27014242  0.99221857
   0.24320137  0.25737874  0.50041986
   0.25936784  0.74412592  0.99692696
   0.24515173  0.74391132  0.49366625
   0.73983099  0.24986730  0.00627680
   0.75366769  0.25118692  0.50324437
   0.73700261  0.74146281 -0.00016015
   0.75764550  0.74896928  0.49940036
   0.25399225  0.00297970  0.25571379
   0.24319564  0.99991687  0.74386259
   0.24196113  0.50059205  0.25281781
   0.25579554  0.50069045  0.74274775
   0.75067952  0.00322347  0.26472007
   0.74743153  1.00829958  0.74956405
   0.76885613  0.50054934  0.25259228
   0.74468437  0.49788695  0.75478359
   0.00367726  0.25120733  0.24482877
   0.00214720  0.25610172  0.73325951
   0.99676977  0.75895080  0.24489139
  -0.00545406  0.75599511  0.73923505
   0.50207029  0.25005474  0.26038069
   0.49281732  0.24490952  0.74102373
   0.50050428  0.74238361  0.25348644
   0.49771297  0.76092900  0.74077966
Direct configuration=    13
   1.00306264  0.99819865  0.00333056
   0.50344105  1.00415620 -0.00171245
   1.00501369  0.49470743 -0.00232708
   0.49942516  0.51000489  0.49213159
   1.00635444  1.00036183  0.50182601
   1.00292173  0.50142839  0.50268409
   0.50371447  0.99752353  0.49914968
   0.48921256  0.49533851  0.00097628
   0.25306726  0.25405824  0.25905158
   0.24894842  0.24877002  0.74782566
   0.25153250  0.74766955  0.24634140
   0.25964791  0.74540921  0.74778825
   0.75063731  0.24722667  0.24767166
   0.75104120  0.25082589  0.73438577
   0.75256616  0.74782600  0.25092321
   0.75656094  0.74501715  0.74936756
   0.26494209  0.26947927  0.99162014
   0.24236798  0.25972574  0.50105121
   0.26076955  0.74456607  0.99854998
   0.24505583  0.74520300  0.49394687
   0.73900368  0.25029755  0.00662856
   0.75415147  0.25257388  0.50315839
   0.73479880  0.73947786 -0.00065183
   0.75701754  0.74848086  0.49985577
   0.25614780  0.00397743  0.25734525
   0.24300980  0.99999913  0.74349088
   0.24222218  0.50088564  0.25343959
   0.25521035  0.49834944  0.74257815
   0.74913212  0.00298217  0.26468036
   0.74696615  1.00801365  0.74918555
   0.76890648  0.50095127  0.25303844
   0.74399613  0.49706175  0.75574464
   0.00302673  0.25006391  0.24487173
   0.00202299  0.25857843  0.73235678
   0.99764333  0.75933956  0.24400542
  -0.00459499  0.75465416  0.73897816
   0.50193999  0.24895677  0.26142842
   0.49427272  0.24330160  0.73906500
   0.50082116  0.74192778  0.25255166
   0.49616965  0.76233027  0.74056119
Direct configuration=    14
   1.00305763  0.99801160  0.00375245
   0.50357068  1.00479121 -0.00198757
   1.00553229  0.49470622 -0.00291555
   0.49876910  0.51087789  0.49092034
   1.00698261  1.00045171  0.50156705
   1.00363918  0.50197893  0.50273616
   0.50374012  0.99678404  0.49823754
   0.48901022  0.49482334  0.00142909
   0.25306269  0.25448280  0.25914254
   0.24900236  0.24900855  0.74774717
   0.25092978  0.74736568  0.24638746
   0.25980663  0.74418476  0.74760811
   0.75087919  0.24701955  0.24730089
   0.75086122  0.24988814  0.73408852
   0.75328558  0.74683692  0.24973715
   0.75669918  0.74546694  0.74937989
   0.26464824  0.26950024  0.99081638
   0.24089689  0.26224396  0.50069349
   0.26208658  0.74493469  1.00036111
   0.24512681  0.74645913  0.49446139
   0.73809429  0.25042024  0.00694316
   0.75536127  0.25327404  0.50210557
   0.73356673  0.73711673 -0.00117949
   0.75589706  0.74818470  0.50083961
   0.25851694  0.00415530  0.25880703
   0.24328166  0.99923907  0.74400155
   0.24269889  0.50204976  0.25402726
   0.25465908  0.49633407  0.74300551
   0.74800002  0.00230236  0.26454067
   0.74709841  1.00720315  0.74869554
   0.76838803  0.50115504  0.25313152
   0.74279143  0.49653774  0.75580038
   0.00317687  0.24829193  0.24526245
   0.00144483  0.26012849  0.73133475
   0.99867023  0.75977680  0.24230664
  -0.00331324  0.75262372  0.73868114
   0.50210070  0.24797209  0.26236479
   0.49621860  0.24224565  0.73643889
   0.50132732  0.74151990  0.25144019
   0.49510286  0.76337561  0.74054118
Direct configuration=    15
   1.00300890  0.99815240  0.00423294
   0.50367040  1.00526189 -0.00234887
   1.00597399  0.49477632 -0.00354246
   0.49800317  0.51149982  0.48997606
   1.00755003  1.00060366  0.50145545
   1.00414525  0.50231357  0.50310201
   0.50385154  0.99610013  0.49742120
   0.48902660  0.49448171  0.00149096
   0.25289733  0.25429775  0.25917534
   0.24976802  0.24911296  0.74781922
   0.25060535  0.74729411  0.24630823
   0.25971413  0.74271047  0.74689420
   0.75079970  0.24664718  0.24685977
   0.75043806  0.24869886  0.73332012
   0.75380207  0.74583849  0.24904992
   0.75714250  0.74605413  0.74947030
   0.26431447  0.26926448  0.99026691
   0.23923847  0.26519784  0.49980516
   0.26279771  0.74522314  1.00212869
   0.24509163  0.74727486  0.49520376
   0.73741496  0.25037560  0.00717483
   0.75629394  0.25433198  0.50067131
   0.73328382  0.73387678 -0.00217187
   0.75500430  0.74814132  0.50187176
   0.26083767  0.00360220  0.26087600
   0.24376559  0.99784684  0.74438012
   0.24307555  0.50412725  0.25333655
   0.25460285  0.49525845  0.74341592
   0.74698152  0.00100905  0.26420695
   0.74710173  1.00547393  0.74766206
   0.76814352  0.50162373  0.25245903
   0.74053877  0.49626205  0.75578218
   0.00365230  0.24614723  0.24587546
   0.00104531  0.26215676  0.73082683
   1.00020105  0.76011533  0.24011319
  -0.00113954  0.75078413  0.73834906
   0.50221196  0.24717009  0.26287536
   0.49824172  0.24106865  0.73350407
   0.50133304  0.74129218  0.24971744
   0.49441455  0.76343143  0.74003800
Direct configuration=    16
   1.00294067  0.99823744  0.00458339
   0.50383844  1.00572972 -0.00277167
   1.00652032  0.49478099 -0.00396907
   0.49724154  0.51193660  0.48925414
   1.00822713  1.00073063  0.50144700
   1.00476625  0.50235404  0.50349863
   0.50405491  0.99524599  0.49621608
   0.48891875  0.49432766  0.00144424
   0.25289528  0.25360936  0.25962619
   0.25055714  0.24886724  0.74751004
   0.25067241  0.74749098  0.24707281
   0.25936108  0.74141451  0.74552952
   0.75137605  0.24611939  0.24593307
   0.74982759  0.24738373  0.73237837
   0.75415997  0.74476976  0.24839367
   0.75750030  0.74699570  0.74918904
   0.26352068  0.26837043  0.99018506
   0.23796914  0.26855100  0.49849924
   0.26326250  0.74576772  1.00373276
   0.24478204  0.74822147  0.49636528
   0.73721700  0.25066426  0.00760898
   0.75688454  0.25592345  0.49862819
   0.73311562  0.73088296 -0.00340981
   0.75353664  0.74843911  0.50329352
   0.26228956  0.00262101  0.26241909
   0.24360000  0.99570991  0.74455386
   0.24269179  0.50584522  0.25258281
   0.25515026  0.49487725  0.74359303
   0.74548102 -0.00086641  0.26304501
   0.74790921  1.00372092  0.74580418
   0.76671930  0.50300206  0.25253770
   0.73834119  0.49611219  0.75544240
   0.00367433  0.24292267  0.24615365
   0.00050309  0.26422245  0.73063139
   1.00235610  0.76044086  0.23785257
   0.00089248  0.74896275  0.73883577
   0.50162195  0.24610518  0.26403709
   0.50032681  0.24038244  0.73145685
   0.50123812  0.74192487  0.24780256
   0.49417300  0.76283899  0.73990701
Direct configuration=    17
   1.00293267  0.99845725  0.00488351
   0.50383897  1.00614215 -0.00316599
   1.00684380  0.49473206 -0.00435308
   0.49652622  0.51235847  0.48888456
   1.00872015  1.00099045  0.50188871
   1.00504646  0.50240980  0.50362369
   0.50411398  0.99451775  0.49494973
   0.48880503  0.49426407  0.00162023
   0.25357512  0.25326223  0.26028207
   0.25149766  0.24823274  0.74680478
   0.25080548  0.74797455  0.24793804
   0.25911005  0.73984972  0.74424947
   0.75167638  0.24598830  0.24533330
   0.74917614  0.24587147  0.73164575
   0.75415847  0.74343545  0.24804516
   0.75774944  0.74773503  0.74853812
   0.26233245  0.26727582  0.99085566
   0.23706217  0.27108315  0.49626037
   0.26382366  0.74627473  1.00460880
   0.24505046  0.74997745  0.49738533
   0.73694716  0.25144249  0.00821387
   0.75760592  0.25724911  0.49682245
   0.73354404  0.72803061 -0.00435298
   0.75174121  0.74863259  0.50401137
   0.26349138  0.00131230  0.26369762
   0.24363840  0.99437685  0.74478086
   0.24286080  0.50648888  0.25175011
   0.25550879  0.49574937  0.74417906
   0.74451051 -0.00235291  0.26111698
   0.74884765  1.00145555  0.74462238
   0.76538434  0.50382650  0.25297414
   0.73614397  0.49650885  0.75483564
   0.00468190  0.23928528  0.24554786
   0.00076688  0.26659496  0.73079334
   1.00418009  0.76117049  0.23642901
   0.00273942  0.74648354  0.73883665
   0.50053914  0.24585153  0.26596168
   0.50169680  0.24041567  0.73004764
   0.50173213  0.74407173  0.24670839
   0.49396600  0.76140229  0.74018702
Direct configuration=    18
   1.00264463  0.99832203  0.00475484
   0.50367418  1.00655061 -0.00354970
   1.00714524  0.49447017 -0.00459621
   0.49593283  0.51301916  0.48890871
   1.00886502  1.00126462  0.50219314
   1.00511371  0.50236176  0.50404150
   0.50408514  0.99391199  0.49341564
   0.48901456  0.49409423  0.00148028
   0.25412304  0.25286716  0.26055072
   0.25247509  0.24770751  0.74627641
   0.25092163  0.74881970  0.24873011
   0.25873689  0.73858337  0.74308851
   0.75168997  0.24590307  0.24518321
   0.74833696  0.24490001  0.73136602
   0.75449135  0.74225153  0.24823192
   0.75803850  0.74849951  0.74787630
   0.26130166  0.26554003  0.99182018
   0.23635390  0.27314956  0.49425573
   0.26411135  0.74781403  1.00497345
   0.24558955  0.75139221  0.49831162
   0.73616747  0.25239469  0.00794251
   0.75858027  0.25842797  0.49525508
   0.73461118  0.72629182 -0.00488109
   0.75027538  0.74937275  0.50367487
   0.26398794  0.00050661  0.26539032
   0.24292199  0.99428859  0.74495201
   0.24324056  0.50712426  0.25078909
   0.25544836  0.49703835  0.74466278
   0.74409028 -0.00430357  0.25873172
   0.75055632  0.99861310  0.74458064
   0.76362875  0.50387145  0.25440826
   0.73400154  0.49675114  0.75404545
   0.00645966  0.23618268  0.24513813
   0.00059845  0.26982810  0.73102386
   1.00593180  0.76257531  0.23587204
   0.00381540  0.74251411  0.73877961
   0.49937459  0.24635380  0.26728116
   0.50263137  0.23992243  0.72837022
   0.50256383  0.74581602  0.24618365
   0.49511577  0.75949528  0.74034883
Direct configuration=    19
   1.00263898  0.99825312  0.00448286
   0.50361214  1.00673038 -0.00384325
   1.00721385  0.49450761 -0.00481890
   0.49534042  0.51386088  0.48901092
   1.00902377  1.00120704  0.50263197
   1.00518384  0.50246484  0.50494799
   0.50395260  0.99392259  0.49174951
   0.48968212  0.49378061  0.00143292
   0.25467598  0.25258284  0.26119391
   0.25330650  0.24690923  0.74624229
   0.25129747  0.74953009  0.24965924
   0.25850599  0.73792656  0.74207268
   0.75157150  0.24591748  0.24523567
   0.74753593  0.24433417  0.73078549
   0.75448775  0.74113837  0.24882656
   0.75848983  0.74908603  0.74745789
   0.25950341  0.26332935  0.99265514
   0.23590433  0.27452347  0.49310796
   0.26354492  0.74870384  1.00461809
   0.24535432  0.75228441  0.49898973
   0.73600028  0.25355296  0.00805372
   0.76027854  0.25921250  0.49327752
   0.73563938  0.72488404 -0.00468576
   0.74943789  0.74964475  0.50299687
   0.26412109 -0.00022117  0.26650545
   0.24189924  0.99467402  0.74452637
   0.24396978  0.50722905  0.24981341
   0.25558904  0.49922899  0.74618581
   0.74395171 -0.00537571  0.25564390
   0.75244755  0.99520927  0.74477502
   0.76215322  0.50381787  0.25609031
   0.73175484  0.49740217  0.75373439
   0.00831477  0.23290391  0.24408620
   0.00048178  0.27246500  0.73158309
   1.00717049  0.76329720  0.23563832
   0.00462204  0.73833682  0.73891621
   0.49955595  0.24733126  0.26858272
   0.50330434  0.23937117  0.72650166
   0.50346924  0.74741047  0.24544678
   0.49670934  0.75708775  0.74011585
Direct configuration=    20
   1.00276789  0.99840476  0.00423875
   0.50361151  1.00667309 -0.00414081
   1.00745617  0.49424995 -0.00486269
   0.49475540  0.51479841  0.48902048
   1.00893835  1.00123444  0.50311079
   1.00520861  0.50248820  0.50573019
   0.50403852  0.99413217  0.48998872
   0.48988090  0.49311298  0.00149003
   0.25502351  0.25211916  0.26146232