unknown system                          
           1
     8.019647    0.000000    0.000000
     0.000000    7.815868    0.000000
     0.000000    0.000000    7.815956
   Ba   Sr   Ti   O 
     4     4     8    24
Direct configuration=     1
   0.00312811  0.00001447  0.99998691
   0.50312699  0.00001753  0.00002040
   0.50312693  0.49998247  0.00002041
   0.00312817  0.49998552  0.99998691
   0.00642556  0.00003368  0.50001291
   0.00642559  0.49996632  0.50001297
   0.50639880  0.00003758  0.49995169
   0.50639875  0.49996243  0.49995178
   0.25864473  0.25000000  0.25459206
   0.25874231  0.24999999  0.74539247
   0.25867982  0.75000000  0.25461897
   0.25874313  0.75000002  0.74540947
   0.75865260  0.25000002  0.25461771
   0.75867510  0.25000000  0.74540072
   0.75869689  0.74999998  0.25463267
   0.75867704  0.75000000  0.74541010
   0.24770182  0.25000004  0.99997597
   0.24373317  0.25000000  0.49998815
   0.24785571  0.74999997  0.99996991
   0.24374535  0.75000001  0.49999731
   0.74772699  0.24999995  0.00003668
   0.74365032  0.25000005  0.49999554
   0.74787608  0.75000006  0.00000784
   0.74366289  0.74999996  0.49999733
   0.24619795  0.99999938  0.25782234
   0.24622315  0.00001735  0.74219185
   0.24619796  0.50000060  0.25782239
   0.24622316  0.49998263  0.74219181
   0.74623760  0.00000069  0.25781220
   0.74620840  0.00000246  0.74217453
   0.74623759  0.49999929  0.25781209
   0.74620840  0.49999752  0.74217465
   0.99506590  0.25000000  0.25980219
   0.99501391  0.25000001  0.74022123
   0.99511647  0.75000001  0.25977276
   0.99508384  0.75000000  0.74022068
   0.49505036  0.24999999  0.25972756
   0.49508825  0.25000001  0.74028727
   0.49511994  0.75000002  0.25969977
   0.49510426  0.75000000  0.74027980
Direct configuration=     2
   0.00306511 -0.00009412  0.99993685
   0.50311685  0.00006091 -0.00004723
   0.50306874  0.50008668  0.00008706
   0.00308183  0.49984932  1.00002218
   0.00645822  0.00007748  0.50004166
   0.00639853  0.50004437  0.50008719
   0.50634310 -0.00010343  0.49991978
   0.50647389  0.50001378  0.49984862
   0.25852785  0.24991896  0.25494546
   0.25900042  0.25005562  0.74534698
   0.25869822  0.74997419  0.25451961
   0.25896860  0.74984059  0.74535415
   0.75855280  0.25003123  0.25454989
   0.75867778  0.25014883  0.74553837
   0.75854816  0.74998764  0.25479409
   0.75826522  0.75009333  0.74524522
   0.24792872  0.25037491  1.00020613
   0.24372102  0.24964807  0.49982137
   0.24784882  0.75014912  1.00014534
   0.24371233  0.74989906  0.49993727
   0.74751103  0.25043897  0.00021184
   0.74340243  0.24984730  0.50038055
   0.74803413  0.74989667 -0.00008966
   0.74372066  0.75020734  0.49985628
   0.24651882  1.00053958  0.25791043
   0.24652348 -0.00009489  0.74236670
   0.24582942  0.50067950  0.25788542
   0.24613708  0.49979063  0.74239354
   0.74641489 -0.00006616  0.25764023
   0.74607346 -0.00033350  0.74201708
   0.74619725  0.50026962  0.25806119
   0.74653475  0.50012072  0.74181874
   0.99492497  0.24963201  0.25963725
   0.99552251  0.25037844  0.74013947
   0.99494207  0.74994825  0.25987864
   0.99502395  0.74986543  0.74027950
   0.49471528  0.24983352  0.25978075
   0.49484441  0.25048870  0.74042105
   0.49528889  0.75026179  0.25974838
   0.49465786  0.75022105  0.74034206
Direct configuration=     3
   0.00293444 -0.00016624  0.99981371
   0.50298703  0.00019112 -0.00014228
   0.50297931  0.50027044  0.00020301
   0.00312882  0.49966589  1.00010490
   0.00634771  0.00022575  0.50008457
   0.00641582  0.50019964  0.50014198
   0.50637108 -0.00038095  0.49982382
   0.50648999  0.50002297  0.49972271
   0.25862010  0.24989299  0.25520943
   0.25892912  0.25009081  0.74513518
   0.25878435  0.74992388  0.25446058
   0.25944465  0.74994106  0.74524658
   0.75820317  0.25024524  0.25461350
   0.75868711  0.25053251  0.74552972
   0.75833504  0.74997180  0.25491044
   0.75792821  0.75019768  0.74508238
   0.24798393  0.25090040  1.00025815
   0.24424870  0.24955277  0.49960075
   0.24816026  0.75007214  1.00039561
   0.24320540  0.75019155  0.50001567
   0.74731604  0.25077746  0.00003286
   0.74276423  0.24954398  0.50016433
   0.74785130  0.74999297 -0.00065940
   0.74374198  0.75039940  0.49954012
   0.24661967  1.00136118  0.25806860
   0.24683799 -0.00052985  0.74238011
   0.24543341  0.50104166  0.25770815
   0.24591517  0.49972087  0.74246426
   0.74611388 -0.00010088  0.25768213
   0.74587261 -0.00035619  0.74171352
   0.74658921  0.50026194  0.25843015
   0.74676043  0.50004844  0.74147745
   0.99490086  0.24957366  0.25985806
   0.99577587  0.25061050  0.74014765
   0.99473985  0.75020135  0.26012760
   0.99471806  0.74946499  0.74020240
   0.49473361  0.24985832  0.26048267
   0.49469760  0.25117038  0.73994424
   0.49505653  0.75069744  0.25985196
   0.49428358  0.75046279  0.74053713
Direct configuration=     4
   0.00279269 -0.00029588  0.99971647
   0.50283655  0.00041221 -0.00020862
   0.50286813  0.50056762  0.00023336
   0.00312744  0.49948814  1.00009902
   0.00630248  0.00034320  0.50000325
   0.00626876  0.50045178  0.50005366
   0.50648610 -0.00080045  0.49946778
   0.50656529  0.49998935  0.49954882
   0.25849847  0.25002465  0.25511661
   0.25899384  0.25029333  0.74437463
   0.25887838  0.74991868  0.25444813
   0.25968911  0.75025111  0.74502514
   0.75795392  0.25042732  0.25464563
   0.75874630  0.25123463  0.74509406
   0.75801149  0.75012601  0.25471584
   0.75744990  0.75016812  0.74494236
   0.24850236  0.25109585  1.00022311
   0.24446411  0.24958127  0.49964472
   0.24877467  0.74980383  1.00079527
   0.24274613  0.75087434  0.49976069
   0.74669116  0.25138789 -0.00011911
   0.74228009  0.24911543  0.49995822
   0.74811318  0.75021320 -0.00135308
   0.74378176  0.75048999  0.49917352
   0.24708161  1.00200314  0.25821738
   0.24714320 -0.00080115  0.74249410
   0.24500069  0.50091827  0.25746906
   0.24606971  0.49962174  0.74212763
   0.74573933 -0.00021041  0.25811637
   0.74527986 -0.00012402  0.74087831
   0.74693182  0.50016570  0.25897592
   0.74684168  0.49998959  0.74086788
   0.99488040  0.24891109  0.26038813
   0.99625771  0.25088537  0.73995074
   0.99482683  0.75077444  0.26035267
   0.99450981  0.74898810  0.74010096
   0.49475700  0.24996766  0.26143281
   0.49463308  0.25187735  0.73940820
   0.49526696  0.75117182  0.25989351
   0.49385412  0.75040959  0.74115334
Direct configuration=     5
   0.00259727 -0.00052505  0.99967232
   0.50264606  0.00069072 -0.00034935
   0.50267961  0.50081821  0.00030040
   0.00299636  0.49929843  1.00011182
   0.00636711  0.00042504  0.49990157
   0.00609058  0.50068296  0.49997710
   0.50669124 -0.00126046  0.49912522
   0.50664407  0.49997781  0.49941515
   0.25843205  0.24998028  0.25490161
   0.25902287  0.25072171  0.74370894
   0.25884411  0.74974330  0.25451883
   0.25987029  0.75050284  0.74476024
   0.75788210  0.25043204  0.25482118
   0.75870748  0.25179835  0.74454758
   0.75787786  0.75030612  0.25450319
   0.75702905  0.75017411  0.74482360
   0.24886772  0.25127785  1.00026746
   0.24462120  0.24963070  0.49983444
   0.24912823  0.74942832  1.00120630
   0.24262461  0.75102304  0.49926136
   0.74659564  0.25172981 -0.00067881
   0.74212302  0.24836358  0.49941471
   0.74855639  0.75028134 -0.00172365
   0.74339478  0.75084433  0.49904849
   0.24773733  1.00228815  0.25785441
   0.24745399 -0.00099164  0.74229592
   0.24445315  0.50058301  0.25684927
   0.24628339  0.49974569  0.74169125
   0.74574444 -0.00063371  0.25797378
   0.74427937  0.00010361  0.73989286
   0.74714718  0.49968601  0.25967407
   0.74715746  0.49982824  0.74077425
   0.99463993  0.24806190  0.26086260
   0.99673525  0.25052621  0.73960059
   0.99514942  0.75139235  0.26028417
   0.99437505  0.74841366  0.74022377
   0.49546821  0.25030696  0.26225856
   0.49465132  0.25246297  0.73906047
   0.49489599  0.75188266  0.25987778
   0.49318902  0.75076094  0.74142549
Direct configuration=     6
   0.00253217 -0.00076044  0.99960845
   0.50258977  0.00094099 -0.00046055
   0.50259483  0.50083671  0.00025750
   0.00296506  0.49916180  1.00018564
   0.00649517  0.00072736  0.49965759
   0.00596514  0.50106003  0.49983082
   0.50688822 -0.00167172  0.49882102
   0.50643140  0.50003670  0.49939521
   0.25830841  0.24988621  0.25448198
   0.25896516  0.25113017  0.74287851
   0.25885503  0.75004625  0.25448634
   0.26002348  0.75070969  0.74445838
   0.75812341  0.25025877  0.25509464
   0.75849099  0.25223599  0.74425190
   0.75780682  0.75038099  0.25432008
   0.75640090  0.74990720  0.74482561
   0.24939447  0.25164659  1.00071037
   0.24458155  0.24921284  0.50035935
   0.24943682  0.74947487  1.00121693
   0.24276709  0.75101231  0.49864762
   0.74669958  0.25210367 -0.00113848
   0.74189594  0.24745140  0.49963431
   0.74865938  0.75041660 -0.00204663
   0.74286225  0.75097625  0.49843647
   0.24831602  1.00213749  0.25767208
   0.24798940 -0.00107282  0.74215873
   0.24427089  0.50045738  0.25643213
   0.24647801  0.50018015  0.74116789
   0.74580779 -0.00091948  0.25789740
   0.74303862  0.00035696  0.73918069
   0.74779079  0.49906987  0.26014568
   0.74732678  0.49999421  0.74048662
   0.99457466  0.24708027  0.26106664
   0.99725913  0.25023612  0.73971247
   0.99555425  0.75212741  0.26018603
   0.99426333  0.74830358  0.74027934
   0.49662372  0.25078542  0.26278177
   0.49508097  0.25317586  0.73862816
   0.49503467  0.75252627  0.25998331
   0.49324620  0.75103909  0.74126582
Direct configuration=     7
   0.00247385 -0.00091505  0.99942416
   0.50251024  0.00117156 -0.00064191
   0.50244852  0.50088325  0.00019931
   0.00290593  0.49900122  1.00041249
   0.00661237  0.00086147  0.49931423
   0.00583624  0.50152246  0.49955861
   0.50716003 -0.00204267  0.49854128
   0.50614648  0.50011777  0.49926980
   0.25832726  0.25005447  0.25392332
   0.25901719  0.25164770  0.74202987
   0.25870181  0.75041462  0.25436612
   0.26006093  0.75081035  0.74445803
   0.75855619  0.25016438  0.25536171
   0.75822176  0.25284962  0.74387179
   0.75804773  0.75041907  0.25432824
   0.75591442  0.74971248  0.74483606
   0.24998587  0.25226333  1.00126395
   0.24430600  0.24882369  0.50093113
   0.24983314  0.74988531  1.00135984
   0.24289651  0.75100724  0.49787940
   0.74635073  0.25264241 -0.00146355
   0.74180053  0.24662181  0.49962584
   0.74858243  0.75024602 -0.00248114
   0.74233080  0.75111737  0.49810731
   0.24877459  1.00218280  0.25754108
   0.24873132 -0.00135607  0.74211069
   0.24397386  0.50005884  0.25621222
   0.24686144  0.50065327  0.74080439
   0.74569181 -0.00145448  0.25775859
   0.74153917 -0.00007091  0.73835063
   0.74809616  0.49859846  0.26133627
   0.74755810  0.50004065  0.74016905
   0.99480362  0.24622403  0.26127015
   0.99756873  0.25008440  0.73992831
   0.99572595  0.75290678  0.26040858
   0.99393550  0.74829363  0.74070768
   0.49779069  0.25112535  0.26324757
   0.49517029  0.25352591  0.73788583
   0.49529354  0.75279277  0.26010617
   0.49358066  0.75157775  0.74128084
Direct configuration=     8
   0.00239068 -0.00115797  0.99935302
   0.50251030  0.00140240 -0.00075909
   0.50231139  0.50081855  0.00018718
   0.00286314  0.49891826  1.00055712
   0.00666431  0.00107210  0.49895022
   0.00583815  0.50203768  0.49931680
   0.50748206 -0.00244725  0.49829636
   0.50567659  0.50019836  0.49920329
   0.25847068  0.25020573  0.25327750
   0.25890674  0.25201371  0.74115105
   0.25870981  0.75055437  0.25421775
   0.26008765  0.75113724  0.74443844
   0.75894019  0.24968938  0.25553148
   0.75777813  0.25338228  0.74340843
   0.75822870  0.75033638  0.25442833
   0.75529941  0.74987796  0.74465395
   0.25004479  0.25262667  1.00168908
   0.24410279  0.24883845  0.50116869
   0.24981407  0.75043263  1.00156397
   0.24278659  0.75078960  0.49721867
   0.74600710  0.25307999 -0.00208377
   0.74229706  0.24623572  0.49936607
   0.74849286  0.74980605 -0.00252092
   0.74191286  0.75171951  0.49760718
   0.24912375  1.00230416  0.25736925
   0.24941295 -0.00138657  0.74206528
   0.24393375  0.49971112  0.25629206
   0.24714063  0.50087106  0.74044811
   0.74557161 -0.00193530  0.25757624
   0.74048605 -0.00037124  0.73770082
   0.74853632  0.49858385  0.26271158
   0.74775074  0.49987982  0.73956614
   0.99511545  0.24569300  0.26126721
   0.99755765  0.25012329  0.74037328
   0.99587036  0.75411609  0.26007018
   0.99337334  0.74819779  0.74153790
   0.49847467  0.25129658  0.26384056
   0.49509130  0.25360774  0.73690210
   0.49551607  0.75292405  0.26065621
   0.49407283  0.75169118  0.74121698
Direct configuration=     9
   0.00223655 -0.00131373  0.99938016
   0.50253962  0.00158368 -0.00081363
   0.50217611  0.50077955  0.00001682
   0.00287402  0.49877778  1.00069619
   0.00653035  0.00117452  0.49863109
   0.00591024  0.50267465  0.49913296
   0.50781931 -0.00272667  0.49795272
   0.50514694  0.50022282  0.49917994
   0.25866609  0.25045754  0.25268331
   0.25868709  0.25247283  0.74043419
   0.25894054  0.75083333  0.25424580
   0.25997633  0.75138227  0.74437724
   0.75948125  0.24900594  0.25564219
   0.75733858  0.25386861  0.74278040
   0.75842874  0.75038689  0.25454815
   0.75501611  0.75016627  0.74421316
   0.25006797  0.25276240  1.00226940
   0.24361750  0.24906014  0.50138915
   0.24984015  0.75050018  1.00134329
   0.24281425  0.75059148  0.49692778
   0.74527681  0.25350596 -0.00285946
   0.74289298  0.24611240  0.49945027
   0.74823084  0.74916988 -0.00228451
   0.74155063  0.75251120  0.49721216
   0.24991220  1.00272335  0.25705160
   0.25020670 -0.00135355  0.74191844
   0.24392371  0.49944350  0.25673401
   0.24705386  0.50094560  0.74022495
   0.74532325 -0.00192201  0.25706862
   0.73969262 -0.00063495  0.73681916
   0.74886255  0.49878041  0.26395625
   0.74761959  0.49951307  0.73900054
   0.99513260  0.24601649  0.26145268
   0.99719067  0.25039506  0.74050782
   0.99589328  0.75554353  0.25971911
   0.99274593  0.74770108  0.74260187
   0.49874674  0.25126779  0.26428483
   0.49465078  0.25409708  0.73583113
   0.49556862  0.75316639  0.26151714
   0.49397411  0.75109073  0.74129693
Direct configuration=    10
   0.00213417 -0.00158801  0.99944182
   0.50261125  0.00182879 -0.00085307
   0.50215679  0.50078474 -0.00010818
   0.00292619  0.49864107  1.00077244
   0.00630597  0.00121589  0.49829657
   0.00605494  0.50314344  0.49907841
   0.50818500 -0.00297193  0.49765939
   0.50459022  0.50019036  0.49903401
   0.25874517  0.25056200  0.25205720
   0.25834944  0.25309962  0.73977493
   0.25943587  0.75130607  0.25420034
   0.25970360  0.75180271  0.74435132
   0.75985760  0.24835564  0.25580572
   0.75673977  0.25449098  0.74228302
   0.75872712  0.75047047  0.25439007
   0.75484343  0.75060504  0.74350052
   0.24991519  0.25285825  1.00256693
   0.24291500  0.24899651  0.50134632
   0.24959999  0.75044350  1.00108309
   0.24307140  0.75075836  0.49714586
   0.74465964  0.25391931 -0.00324102
   0.74363932  0.24571630  0.49914637
   0.74766296  0.74873565 -0.00217992
   0.74143577  0.75310043  0.49665908
   0.25011971  1.00297777  0.25667671
   0.25126673 -0.00086289  0.74219840
   0.24400129  0.49925798  0.25732449
   0.24708814  0.50113734  0.74015215
   0.74530316 -0.00152272  0.25605333
   0.73931062 -0.00081950  0.73613615
   0.74933782  0.49893703  0.26479415
   0.74729321  0.49957390  0.73837786
   0.99482852  0.24637319  0.26170766
   0.99679129  0.25132327  0.74017930
   0.99615826  0.75708593  0.25978103
   0.99176488  0.74755401  0.74371273
   0.49898208  0.25126769  0.26435548
   0.49442927  0.25472925  0.73502038
   0.49586592  0.75319037  0.26190473
   0.49441369  0.75060044  0.74121762
Direct configuration=    11
   0.00201205 -0.00165738  0.99952777
   0.50274761  0.00215497 -0.00099570
   0.50216836  0.50065326 -0.00043088
   0.00315098  0.49855838  1.00094100
   0.00604325  0.00137107  0.49795690
   0.00605893  0.50359365  0.49899489
   0.50852710 -0.00333420  0.49722126
   0.50405464  0.50015003  0.49893067
   0.25876935  0.25093249  0.25121086
   0.25799142  0.25367079  0.73911796
   0.26001674  0.75201885  0.25381394
   0.25932032  0.75200289  0.74430242
   0.76008753  0.24786072  0.25595911
   0.75640674  0.25473499  0.74190839
   0.75883689  0.75034680  0.25425418
   0.75479861  0.75127929  0.74271324
   0.24987410  0.25268394  1.00282946
   0.24222110  0.24886920  0.50135632
   0.24953772  0.75030210  1.00055309
   0.24358149  0.75087649  0.49754398
   0.74471575  0.25412707 -0.00328779
   0.74452265  0.24531298  0.49878314
   0.74697219  0.74824620 -0.00186891
   0.74150188  0.75362851  0.49636410
   0.24996764  1.00282328  0.25662521
   0.25235387 -0.00014961  0.74282614
   0.24396952  0.49946256  0.25764911
   0.24708291  0.50110744  0.74032736
   0.74524540 -0.00177304  0.25447766
   0.73893945 -0.00105498  0.73606522
   0.74980020  0.49884026  0.26582050
   0.74668859  0.49960209  0.73764202
   0.99440599  0.24654814  0.26160919
   0.99686983  0.25220105  0.73948916
   0.99586481  0.75801735  0.25950116
   0.99065526  0.74790668  0.74457607
   0.49893934  0.25108700  0.26405053
   0.49436305  0.25445537  0.73409296
   0.49593337  0.75289047  0.26233091
   0.49440263  0.74999407  0.74110336
Direct configuration=    12
   0.00183488 -0.00170497  0.99941818
   0.50292492  0.00241446 -0.00098622
   0.50211018  0.50049362 -0.00083161
   0.00337147  0.49849168  1.00104360
   0.00575983  0.00125285  0.49755283
   0.00596154  0.50406940  0.49890126
   0.50874343 -0.00361962  0.49678734
   0.50354317  0.50028324  0.49893303
   0.25896141  0.25106517  0.25040528
   0.25736494  0.25398551  0.73839166
   0.26059351  0.75268322  0.25348460
   0.25925278  0.75234954  0.74419580
   0.76020774  0.24710044  0.25646274
   0.75610992  0.25490251  0.74159067
   0.75903058  0.74998146  0.25389851
   0.75486457  0.75203532  0.74215583
   0.25011211  0.25261265  1.00332989
   0.24098739  0.24922272  0.50113181
   0.24945591  0.74992097  1.00066559
   0.24447766  0.75127824  0.49824250
   0.74511274  0.25416979 -0.00313409
   0.74543910  0.24510387  0.49802583
   0.74652332  0.74794253 -0.00164033
   0.74162915  0.75357818  0.49601020
   0.24974069  1.00283869  0.25628021
   0.25332275  0.00060651  0.74331694
   0.24369998  0.49958943  0.25856287
   0.24696154  0.50118558  0.74021568
   0.74486662 -0.00201865  0.25300424
   0.73901620 -0.00130665  0.73603841
   0.75028530  0.49868736  0.26662776
   0.74632605  0.49960111  0.73726742
   0.99447931  0.24662243  0.26163115
   0.99682742  0.25276010  0.73896195
   0.99568264  0.75862438  0.25922584
   0.98947903  0.74828691  0.74529473
   0.49842052  0.25113292  0.26323538
   0.49443001  0.25350989  0.73324850
   0.49595631  0.75235255  0.26239302
   0.49484292  0.74908174  0.74094763
Direct configuration=    13
   0.00174815 -0.00168907  0.99952145
   0.50316702  0.00265786 -0.00095127
   0.50203756  0.50014622 -0.00111019
   0.00354359  0.49841249  1.00124299
   0.00555280  0.00111401  0.49707140
   0.00590163  0.50444211  0.49893538
   0.50893443 -0.00398273  0.49622732
   0.50306701  0.50055540  0.49890661
   0.25936821  0.25141144  0.24966506
   0.25666241  0.25418782  0.73763922
   0.26102042  0.75343781  0.25329741
   0.25938671  0.75303060  0.74412625
   0.76038984  0.24634012  0.25698782
   0.75573076  0.25484140  0.74147489
   0.75903766  0.74974441  0.25330533
   0.75498280  0.75281685  0.74169775
   0.25065492  0.25278189  1.00369261
   0.23976722  0.24961534  0.50094427
   0.24922665  0.74932881  1.00042695
   0.24543258  0.75200942  0.49883365
   0.74584677  0.25440108 -0.00304333
   0.74633729  0.24454372  0.49744873
   0.74599316  0.74794161 -0.00153040
   0.74206672  0.75290322  0.49624301
   0.24965470  1.00280178  0.25607994
   0.25401047  0.00098521  0.74351066
   0.24324882  0.49962093  0.25941500
   0.24705696  0.50108777  0.74044836
   0.74465298 -0.00211199  0.25186228
   0.73951176 -0.00178759  0.73681496
   0.75075215  0.49846241  0.26706998
   0.74631710  0.49959082  0.73685392
   0.99457473  0.24680564  0.26150872
   0.99656621  0.25328744  0.73878829
   0.99557768  0.75912262  0.25915682
   0.98911311  0.74853387  0.74579805
   0.49745006  0.25053732  0.26247390
   0.49449752  0.25249517  0.73289706
   0.49612849  0.75211060  0.26301532
   0.49509200  0.74802851  0.74079580
Direct configuration=    14
   0.00168523 -0.00164837  0.99958105
   0.50336350  0.00294785 -0.00086576
   0.50180213  0.49987543 -0.00127296
   0.00378256  0.49842646  1.00143745
   0.00536059  0.00111943  0.49684394
   0.00596680  0.50471622  0.49893662
   0.50907507 -0.00438772  0.49556556
   0.50262733  0.50084910  0.49896972
   0.25967174  0.25149995  0.24922319
   0.25589176  0.25424471  0.73695742
   0.26155860  0.75419779  0.25302147
   0.25959361  0.75394134  0.74410450
   0.76051963  0.24567771  0.25758088
   0.75535149  0.25488396  0.74140249
   0.75898391  0.74948247  0.25263457
   0.75541783  0.75368585  0.74139818
   0.25148178  0.25261645  1.00396962
   0.23853313  0.25015187  0.50018448
   0.24908833  0.74856073  0.99989565
   0.24603041  0.75302282  0.49951716
   0.74698792  0.25437085 -0.00323181
   0.74703502  0.24421068  0.49701421
   0.74557486  0.74788383 -0.00149678
   0.74275468  0.75251928  0.49643170
   0.24942898  1.00274579  0.25614890
   0.25431941  0.00118337  0.74361924
   0.24268411  0.49962021  0.26016342
   0.24753252  0.50122114  0.74115850
   0.74464175 -0.00222405  0.25048568
   0.74040220 -0.00219637  0.73787326
   0.75133008  0.49830604  0.26699655
   0.74599053  0.49998367  0.73588510
   0.99470250  0.24723911  0.26131757
   0.99633240  0.25340427  0.73831372
   0.99580330  0.75968808  0.25904964
   0.98925119  0.74889345  0.74631697
   0.49576531  0.25000011  0.26179076
   0.49487286  0.25167435  0.73334649
   0.49615871  0.75182083  0.26361852
   0.49530904  0.74686062  0.74097386
Direct configuration=    15
   0.00169505 -0.00145595  0.99968903
   0.50354004  0.00331177 -0.00086382
   0.50159287  0.49968320 -0.00140407
   0.00406740  0.49830974  1.00166994
   0.00505756  0.00110505  0.49652624
   0.00589986  0.50504713  0.49877289
   0.50929188 -0.00492154  0.49512522
   0.50216350  0.50126173  0.49903487
   0.26018129  0.25160112  0.24899883
   0.25524867  0.25419732  0.73636955
   0.26195354  0.75466646  0.25255314
   0.25980583  0.75467276  0.74400598
   0.76072667  0.24523578  0.25800249
   0.75513288  0.25513468  0.74144634
   0.75904296  0.74914554  0.25156896
   0.75618971  0.75428072  0.74122460
   0.25195776  0.25223827  1.00388658
   0.23749416  0.25046000  0.49935080
   0.24886437  0.74768314  0.99972918
   0.24605445  0.75421074  0.50066183
   0.74831428  0.25452186 -0.00354241
   0.74792126  0.24412528  0.49686639
   0.74551105  0.74808139 -0.00141438
   0.74371675  0.75222661  0.49704481
   0.24950965  1.00240160  0.25590868
   0.25441067  0.00124641  0.74401668
   0.24227446  0.50019352  0.26100775
   0.24790097  0.50125545  0.74203073
   0.74458708 -0.00206189  0.24901826
   0.74082041 -0.00233226  0.73897535
   0.75224428  0.49830628  0.26687024
   0.74545099  0.49976973  0.73516696
   0.99485226  0.24764976  0.26093098
   0.99580689  0.25341151  0.73783837
   0.99580051  0.76021815  0.25869787
   0.98961812  0.74920216  0.74664721
   0.49401157  0.24932650  0.26108951
   0.49543375  0.25124480  0.73406181
   0.49606285  0.75133587  0.26391956
   0.49528113  0.74555404  0.74072971
Direct configuration=    16
   0.00164669 -0.00131973  0.99984966
   0.50379990  0.00361074 -0.00088672
   0.50142028  0.49964721 -0.00163023
   0.00446074  0.49808036  1.00179448
   0.00474130  0.00095173  0.49619781
   0.00592818  0.50554447  0.49858018
   0.50959751 -0.00528457  0.49470062
   0.50168033  0.50170399  0.49909461
   0.26071604  0.25159751  0.24888070
   0.25466282  0.25394763  0.73600458
   0.26209638  0.75516155  0.25204831
   0.25999112  0.75547789  0.74384920
   0.76084793  0.24493746  0.25826637
   0.75456664  0.25528724  0.74156615
   0.75924734  0.74875816  0.25061429
   0.75675277  0.75481627  0.74102145
   0.25215981  0.25167483  1.00373625
   0.23690105  0.25053378  0.49832040
   0.24870184  0.74690686  0.99974352
   0.24567617  0.75556490  0.50198967
   0.75001613  0.25434032 -0.00348177
   0.74883677  0.24387085  0.49699030
   0.74531405  0.74798025 -0.00115303
   0.74523461  0.75228037  0.49782267
   0.24948072  1.00193468  0.25595781
   0.25377666  0.00147385  0.74437733
   0.24172659  0.50139343  0.26215425
   0.24777870  0.50154385  0.74274365
   0.74461017 -0.00212570  0.24791357
   0.74126443 -0.00178342  0.73997628
   0.75258532  0.49852878  0.26655635
   0.74494851  0.49977669  0.73431592
   0.99515168  0.24782513  0.26012959
   0.99526287  0.25335984  0.73733781
   0.99583494  0.76050885  0.25817873
   0.99069406  0.75030577  0.74661556
   0.49237043  0.24857034  0.26070327
   0.49616283  0.25074600  0.73459520
   0.49578966  0.75054712  0.26394452
   0.49543685  0.74441049  0.74037318
Direct configuration=    17
   0.00163348 -0.00111390  1.00010315
   0.50395590  0.00394119 -0.00084016
   0.50122626  0.49951463 -0.00174149
   0.00483216  0.49786548  1.00185701
   0.00471663  0.00079778  0.49565299
   0.00605282  0.50585969  0.49850214
   0.50984684 -0.00549543  0.49428217
   0.50145427  0.50205930  0.49911798
   0.26120672  0.25156441  0.24841827
   0.25419577  0.25372643  0.73587359
   0.26208088  0.75555150  0.25166383
   0.26000051  0.75617243  0.74363231
   0.76077297  0.24473681  0.25821328
   0.75385282  0.25529101  0.74187162
   0.75943863  0.74831446  0.24987516
   0.75743612  0.75528820  0.74084142
   0.25244187  0.25125114  1.00330803
   0.23652886  0.25090280  0.49766338
   0.24865689  0.74656917  1.00029046
   0.24502577  0.75695408  0.50312628
   0.75129410  0.25396914 -0.00321554
   0.74943554  0.24322502  0.49720113
   0.74527197  0.74788712 -0.00077201
   0.74645027  0.75232428  0.49843248
   0.24957844  1.00161013  0.25603006
   0.25289234  0.00188358  0.74489889
   0.24150505  0.50319971  0.26358040
   0.24744848  0.50157163  0.74342194
   0.74483630 -0.00188249  0.24701816
   0.74174525 -0.00098773  0.74108885
   0.75235299  0.49832525  0.26632068
   0.74398811  0.49959735  0.73367391
   0.99592507  0.24796493  0.25953461
   0.99404813  0.25315556  0.73683131
   0.99581425  0.76095202  0.25750227
   0.99221671  0.75133338  0.74634296
   0.49084701  0.24828116  0.26059841
   0.49668082  0.24993451  0.73487566
   0.49532615  0.74956141  0.26357889
   0.49577752  0.74283323  0.73984254
Direct configuration=    18
   0.00168638 -0.00096105  1.00048376
   0.50426528  0.00428664 -0.00089059
   0.50113049  0.49949846 -0.00182838
   0.00522168  0.49781203  1.00193715
   0.00470321  0.00068888  0.49512751
   0.00622432  0.50612426  0.49841434
   0.51009468 -0.00560260  0.49384167
   0.50140739  0.50245252  0.49935720
   0.26165202  0.25152650  0.24799144
   0.25364381  0.25317998  0.73577461
   0.26207748  0.75571604  0.25123666
   0.26004704  0.75664077  0.74322568
   0.76064401  0.24441135  0.25811635
   0.75303947  0.25506049  0.74243301
   0.75952791  0.74766708  0.24933232
   0.75823441  0.75569030  0.74081024
   0.25285175  0.25091146  1.00284381
   0.23641967  0.25163112  0.49667878
   0.24837984  0.74619209  1.00105396
   0.24425580  0.75815669  0.50322889
   0.75225901  0.25358982 -0.00266584
   0.74962260  0.24228366  0.49767267
   0.74495250  0.74794509 -0.00038834
   0.74728677  0.75228079  0.49903245
   0.24964574  1.00132841  0.25621576
   0.25205304  0.00231457  0.74524422
   0.24174441  0.50540080  0.26514671
   0.24707827  0.50129983  0.74383876
   0.74504729 -0.00131430  0.24637521
   0.74254016 -0.00044575  0.74259939
   0.75198612  0.49813447  0.26570750
   0.74280691  0.49967816  0.73298193
   0.99668577  0.24820122  0.25826287
   0.99296762  0.25276666  0.73655130
   0.99583416  0.76153718  0.25733120
   0.99364937  0.75277584  0.74587485
   0.48983809  0.24770983  0.26096435
   0.49717511  0.24909480  0.73516456
   0.49496800  0.74863937  0.26305125
   0.49613240  0.74187146  0.73947280
Direct configuration=    19
   0.00179055 -0.00085144  1.00087224
   0.50440689  0.00456532 -0.00095203
   0.50108302  0.49933222 -0.00190480
   0.00554981  0.49786937  1.00217515
   0.00468218  0.00070399  0.49438029
   0.00622027  0.50625903  0.49839322
   0.51036570 -0.00590839  0.49342335
   0.50140072  0.50277552  0.49954498
   0.26216568  0.25151844  0.24753250
   0.25315627  0.25234692  0.73549102
   0.26209024  0.75589931  0.25061289
   0.26009929  0.75716039  0.74264934
   0.76049588  0.24430235  0.25782352
   0.75228231  0.25490141  0.74297322
   0.75932120  0.74683574  0.24879159
   0.75914651  0.75609174  0.74070926
   0.25306053  0.24996194  1.00202068
   0.23610039  0.25177757  0.49654287
   0.24801835  0.74568151  1.00167235
   0.24361979  0.75855373  0.50278216
   0.75273307  0.25352404 -0.00221022
   0.74955147  0.24112911  0.49829612
   0.74481783  0.74796118  0.00028529
   0.74792999  0.75275924  0.49990956
   0.24982716  1.00118436  0.25619130
   0.25106756  0.00287125  0.74584838
   0.24182256  0.50759770  0.26629313
   0.24660559  0.50094786  0.74442065
   0.74546729 -0.00035914  0.24580754
   0.74315635  0.00020126  0.74362025
   0.75140864  0.49832807  0.26477879
   0.74207760  0.49968941  0.73200292
   0.99675494  0.24863736  0.25710016
   0.99232251  0.25269960  0.73664807
   0.99587495  0.76159940  0.25669088
   0.99518137  0.75408061  0.74525896
   0.49008075  0.24734445  0.26141800
   0.49717098  0.24844825  0.73573284
   0.49442937  0.74792520  0.26218729
   0.49637427  0.74151241  0.73908313
Direct configuration=    20
   0.00196056 -0.00062707  1.00113100
   0.50448604  0.00474538 -0.00100030
   0.50097611  0.49914601 -0.00198276
   0.00578727  0.49787528  1.00257576
   0.00476229  0.00064120  0.49355486
   0.00617087  0.50623783  0.49837292
   0.51063134 -0.00619387  0.49291635
   0.50150539  0.50302354  0.49948069
   0.26233007  0.25171913  0.24728569