unknown system                          
           1
     7.815874    0.000000    0.000000
     0.000000    7.815868    0.000000
     0.000000    0.000000    7.959483
   Ba   Sr   Ti   O 
     4     4     8    24
Direct configuration=     1
   0.99999997  0.00000001  0.00000003
   0.00000003  0.00000002  0.50000001
   0.49999996  0.50000001  0.99999997
   0.49999987  0.49999999  0.50000005
   0.50000035  1.00000000  0.00000031
   0.50000012  0.00000001  0.49999969
   0.00000002  0.49999998  0.99999981
   0.00000017  0.50000001  0.50000021
   0.24999996  0.25000003  0.25000001
   0.24999999  0.25000002  0.75000002
   0.24999995  0.74999993  0.25000003
   0.25000003  0.75000001  0.75000002
   0.75000009  0.25000005  0.25000007
   0.74999998  0.25000002  0.74999995
   0.75000006  0.74999993  0.25000008
   0.75000003  0.74999999  0.74999996
   0.25000000  0.25000001  0.00000075
   0.24999998  0.25000001  0.49999922
   0.24999996  0.75000002  0.99999990
   0.24999997  0.75000001  0.50000008
   0.74999993  0.24999988  0.99999899
   0.74999994  0.24999986  0.50000097
   0.75000000  0.75000010  0.00000043
   0.74999999  0.75000008  0.49999959
   0.25429619  0.00000080  0.25000003
   0.25429604  0.99999967  0.74999993
   0.24570386  0.49999920  0.25000003
   0.24570377  0.50000034  0.74999995
   0.74570375  0.99999875  0.24999999
   0.74570382  0.00000064  0.75000000
   0.75429614  0.50000123  0.24999998
   0.75429619  0.49999934  0.74999999
   0.00000138  0.25429607  0.25000001
   0.99999896  0.25429617  0.74999995
   0.99999930  0.74570392  0.25000001
   0.99999998  0.74570383  0.75000000
   0.49999860  0.24570369  0.25000002
   0.50000099  0.24570383  0.74999993
   0.50000069  0.75429635  0.25000000
   0.49999998  0.75429620  0.75000002
Direct configuration=     2
   1.00008186  0.00017598  0.00021739
  -0.00009835  0.00023934  0.50021041
   0.49997126  0.50012624  1.00017332
   0.50031865  0.50002084  0.50003666
   0.50014859  0.99988419  0.00015765
   0.49980387 -0.00009368  0.49982186
  -0.00003055  0.49974075  0.99982903
  -0.00000124  0.50033426  0.50010856
   0.24994953  0.24971032  0.24979811
   0.24976270  0.25008612  0.75003527
   0.24987997  0.74983149  0.24964952
   0.25004328  0.74996180  0.74985529
   0.74986567  0.25023228  0.24969669
   0.75025363  0.25012039  0.75028570
   0.75016267  0.75014893  0.25021723
   0.75008191  0.75019084  0.74997178
   0.25039391  0.24977326  0.00015670
   0.25046689  0.24981493  0.49985437
   0.25100157  0.74974525  1.00042685
   0.24913149  0.75019126  0.49971978
   0.75018685  0.24984126  0.99966302
   0.75055830  0.25007624  0.50082326
   0.74901489  0.75003472  0.00041375
   0.75097880  0.75000536  0.49952705
   0.25427156  0.00033188  0.24973228
   0.25423279  0.99967893  0.74964113
   0.24543715  0.50044913  0.25075587
   0.24512719  0.49984996  0.75021551
   0.74632615  0.99980644  0.24996794
   0.74549889  0.00054703  0.75000209
   0.75394899  0.49951436  0.24949785
   0.75363224  0.50071288  0.74966790
   0.00004459  0.25383573  0.24864204
   1.00046464  0.25405833  0.74938971
   1.00025574  0.74591078  0.25079164
   1.00031020  0.74582346  0.75021010
   0.49925507  0.24535341  0.25020539
   0.49992903  0.24567987  0.74966387
   0.50052460  0.75368696  0.25028584
   0.50006502  0.75436849  0.74967714
Direct configuration=     3
   1.00029736  0.00058640  0.00037028
  -0.00014153  0.00037601  0.50027059
   0.49991493  0.50038749  1.00032231
   0.50087846  0.50010572  0.49997961
   0.50035149  0.99944981  0.00012532
   0.49949687 -0.00018816  0.49987848
  -0.00017610  0.49920905  1.00011894
  -0.00003241  0.50076385  0.50010461
   0.24993521  0.24885813  0.24954206
   0.24980149  0.24995317  0.75001863
   0.24951404  0.74931118  0.24917122
   0.25013509  0.75008084  0.74974662
   0.74956368  0.25109529  0.24983815
   0.75043462  0.25032557  0.75052525
   0.75058524  0.75000875  0.25093854
   0.75025895  0.75030345  0.74942490
   0.25086184  0.24899762  0.00137953
   0.25105830  0.24961931  0.49987344
   0.25176889  0.75007856  1.00104741
   0.24757124  0.75081789  0.49967759
   0.75078072  0.24932511  0.99951405
   0.75094689  0.25119418  0.50134368
   0.74741325  0.75025004  0.00138826
   0.75177057  0.75014083  0.50004590
   0.25389770  0.00135981  0.24889025
   0.25438541  0.99878351  0.75024705
   0.24465970  0.49986460  0.25211042
   0.24407406  0.49935154  0.75065207
   0.74726737  0.99985500  0.25003751
   0.74494599  0.00170015  0.75067339
   0.75453410  0.49817877  0.24913721
   0.75341608  0.50053713  0.74878549
   0.00034083  0.25356597  0.24734323
   1.00099106  0.25412201  0.74825825
   1.00106882  0.74581459  0.25178661
   1.00021127  0.74618396  0.75158787
   0.49918135  0.24536766  0.24997975
   0.49948458  0.24541147  0.74960456
   0.50104205  0.75336208  0.25019653
   0.49992860  0.75467783  0.74889809
Direct configuration=     4
   1.00065468  0.00113422  0.00066758
  -0.00019134  0.00076403  0.50044076
   0.49983315  0.50050235  1.00039901
   0.50122588  0.50017166  0.50030724
   0.50068534  0.99886996  0.00035916
   0.49916604 -0.00017672  0.50006004
  -0.00034782  0.49843446  1.00072019
  -0.00031091  0.50115787  0.50046188
   0.25030417  0.24842500  0.24945850
   0.25005495  0.24952205  0.74967700
   0.24903845  0.74910653  0.24861428
   0.25001952  0.75015014  0.74931923
   0.74986215  0.25164146  0.24971453
   0.75103801  0.24972676  0.75032489
   0.75090578  0.74971416  0.25187354
   0.75046570  0.75028604  0.74898938
   0.25169074  0.24782313  0.00256127
   0.25119252  0.24882176  0.50005849
   0.25224127  0.75057090  1.00096620
   0.24596905  0.75133391  0.49970852
   0.75185649  0.24830795  0.99991291
   0.75160534  0.25183580  0.50151081
   0.74716619  0.74986677  0.00188131
   0.75199381  0.75103230  0.50077378
   0.25299483  0.00139200  0.24739018
   0.25545907  0.99791718  0.75141981
   0.24401954  0.49911514  0.25282536
   0.24284292  0.49868658  0.75092560
   0.74794387  0.99988989  0.25055791
   0.74417795  0.00332705  0.75069449
   0.75569358  0.49664003  0.24913309
   0.75345464  0.50104845  0.74714268
   0.00150972  0.25382812  0.24548273
   1.00128379  0.25338225  0.74760588
   1.00100335  0.74601090  0.25341737
   0.99993291  0.74707852  0.75349960
   0.49916512  0.24581452  0.24945181
   0.49923499  0.24536367  0.74964773
   0.50195318  0.75206157  0.25109959
   0.49968003  0.75530375  0.74837939
Direct configuration=     5
   1.00106019  0.00178101  0.00119790
  -0.00025492  0.00099161  0.50061266
   0.49974275  0.50068827  1.00029892
   0.50185138  0.50024888  0.50061551
   0.50135575  0.99855554  0.00052030
   0.49862121 -0.00028081  0.50016595
  -0.00064470  0.49763485  1.00093175
  -0.00049172  0.50160838  0.50088081
   0.25068339  0.24836561  0.24955344
   0.25080589  0.24882079  0.74875878
   0.24856632  0.74930314  0.24780951
   0.24952679  0.75005169  0.74869970
   0.74970078  0.25172770  0.24973085
   0.75058378  0.24920514  0.75025171
   0.75132578  0.74975737  0.25307874
   0.75063263  0.75042350  0.74838132
   0.25267262  0.24686831  0.00376274
   0.25109660  0.24831425  0.50099918
   0.25313707  0.75123191  1.00063151
   0.24461245  0.75217429  0.50036641
   0.75251034  0.24730476  1.00006883
   0.75175129  0.25237122  0.50110232
   0.74713953  0.74914146  0.00223642
   0.75228944  0.75171592  0.50142810
   0.25274012  0.00180961  0.24555648
   0.25639894  0.99765336  0.75268990
   0.24405009  0.49855689  0.25341219
   0.24108759  0.49773383  0.75068631
   0.74869765  1.00038035  0.25133514
   0.74257689  0.00374576  0.75059572
   0.75720929  0.49556696  0.24885446
   0.75388070  0.50202952  0.74542195
   0.00230418  0.25363192  0.24438508
   1.00139903  0.25320793  0.74697543
   1.00125878  0.74645493  0.25547961
   0.99945184  0.74820333  0.75498183
   0.50042203  0.24602756  0.24853788
   0.49824845  0.24581250  0.75010944
   0.50279059  0.75123544  0.25108450
   0.49875649  0.75673927  0.74846899
Direct configuration=     6
   1.00120874  0.00217467  0.00195500
  -0.00063057  0.00125298  0.50092416
   0.49971344  0.50108819  1.00014956
   0.50250799  0.50016586  0.50090367
   0.50228000  0.99794182  0.00042470
   0.49805584 -0.00021445  0.50054238
  -0.00098358  0.49680544  1.00124342
  -0.00086388  0.50250429  0.50104229
   0.25095402  0.24806406  0.24986388
   0.25170286  0.24811583  0.74807214
   0.24799385  0.74964381  0.24679408
   0.24892632  0.75021459  0.74825439
   0.74955191  0.25157753  0.24956996
   0.74992609  0.24881785  0.75034605
   0.75155487  0.74969288  0.25416026
   0.75091172  0.75027829  0.74802080
   0.25416118  0.24614319  0.00434387
   0.25146419  0.24767569  0.50195927
   0.25401135  0.75203482  1.00041318
   0.24267153  0.75199518  0.49972004
   0.75306476  0.24613348  1.00039279
   0.75140564  0.25217920  0.49972187
   0.74684908  0.74895835  0.00287089
   0.75200733  0.75223882  0.50137711
   0.25369545  0.00202902  0.24425492
   0.25699360  0.99743996  0.75360464
   0.24411554  0.49792129  0.25520550
   0.23931788  0.49728369  0.75030417
   0.74986413  1.00034647  0.25174136
   0.74129833  0.00385089  0.74990653
   0.75854697  0.49568614  0.24837083
   0.75407098  0.50301309  0.74384124
   0.00270684  0.25344841  0.24509234
   1.00179693  0.25292322  0.74611881
   1.00152023  0.74751901  0.25822391
   0.99905825  0.74949666  0.75706266
   0.50205796  0.24700499  0.24813036
   0.49777555  0.24703854  0.75108742
   0.50287543  0.75069880  0.25170118
   0.49834364  0.75809907  0.74920224
Direct configuration=     7
   1.00152600  0.00283035  0.00290325
  -0.00113472  0.00140500  0.50139850
   0.49959534  0.50126087  0.99992978
   0.50337446  0.50004526  0.50110466
   0.50340618  0.99729183  0.00056683
   0.49743538 -0.00017302  0.50078422
  -0.00134980  0.49582589  1.00163463
  -0.00110664  0.50343203  0.50137424
   0.25111449  0.24802755  0.25024139
   0.25241271  0.24777863  0.74751543
   0.24755252  0.75033366  0.24522259
   0.24870652  0.75046816  0.74821253
   0.74960519  0.25098973  0.24895469
   0.74895081  0.24880857  0.75042496
   0.75162364  0.74980047  0.25514126
   0.75115020  0.75025778  0.74771738
   0.25574239  0.24559448  0.00440061
   0.25237675  0.24749988  0.50241829
   0.25442354  0.75292042  1.00039872
   0.24051323  0.75166539  0.49874610
   0.75435624  0.24476839  1.00108687
   0.74992644  0.25218854  0.49934055
   0.74698633  0.74984167  0.00378120
   0.75154309  0.75331382  0.50233740
   0.25449287  0.00174272  0.24338607
   0.25751111  0.99760803  0.75379130
   0.24307092  0.49766645  0.25692083
   0.23733112  0.49691270  0.75072051
   0.75187453  1.00067747  0.25243252
   0.73967571  0.00359664  0.74953285
   0.75979024  0.49636514  0.24782322
   0.75487531  0.50415384  0.74199352
   0.00325136  0.25311359  0.24640667
   1.00180136  0.25267836  0.74548663
   1.00161250  0.74915435  0.26059682
   0.99828575  0.75010122  0.75851654
   0.50339980  0.24830516  0.24823188
   0.49838890  0.24852504  0.75212789
   0.50279923  0.75033220  0.25291057
   0.49800584  0.75919313  0.75057543
Direct configuration=     8
   1.00155177  0.00341199  0.00353004
  -0.00179176  0.00130818  0.50194772
   0.49949605  0.50132283  0.99989058
   0.50427899  0.49971071  0.50119025
   0.50450486  0.99686882  0.00046280
   0.49655434 -0.00018106  0.50072980
  -0.00135476  0.49529148  1.00244550
  -0.00140751  0.50409445  0.50210048
   0.25107624  0.24833577  0.25034008
   0.25308580  0.24770205  0.74721841
   0.24676446  0.75059676  0.24379549
   0.24850174  0.75075349  0.74804782
   0.74992911  0.25065366  0.24882657
   0.74794075  0.24949805  0.75000933
   0.75130047  0.74950741  0.25599322
   0.75112486  0.75054139  0.74807223
   0.25668666  0.24476645  0.00482222
   0.25307984  0.24746981  0.50226274
   0.25604175  0.75340230  1.00169551
   0.23914106  0.75179993  0.49774162
   0.75566090  0.24485305  1.00239399
   0.74945584  0.25235472  0.49872450
   0.74703997  0.75120658  0.00437544
   0.75061753  0.75468439  0.50406723
   0.25537769  0.00078710  0.24317115
   0.25782297  0.99805625  0.75385689
   0.24230026  0.49794559  0.25798287
   0.23564151  0.49626331  0.75076579
   0.75409600  1.00130040  0.25335775
   0.73806907  0.00223804  0.74862499
   0.76135747  0.49827524  0.24759706
   0.75543687  0.50479094  0.74041043
   0.00323775  0.25339145  0.24814157
   1.00096265  0.25209162  0.74522286
   1.00156830  0.75125193  0.26259767
   0.99713263  0.75070878  0.75911505
   0.50471221  0.24924393  0.24865479
   0.49944668  0.25033177  0.75338390
   0.50234107  0.75061749  0.25377664
   0.49811939  0.75986163  0.75197074
Direct configuration=     9
   1.00184519  0.00408283  0.00405948
  -0.00245765  0.00114595  0.50264676
   0.49942543  0.50137337  0.99967021
   0.50521808  0.49946855  0.50126862
   0.50551297  0.99626076  0.00048517
   0.49538497 -0.00002573  0.50049952
  -0.00131514  0.49446537  1.00325131
  -0.00154151  0.50466816  0.50282594
   0.25095886  0.24917207  0.24991230
   0.25372794  0.24796495  0.74698300
   0.24607720  0.75019393  0.24238219
   0.24871759  0.75087489  0.74795431
   0.75021653  0.25048759  0.24903101
   0.74713614  0.25003908  0.74954324
   0.75089000  0.74983168  0.25623164
   0.75104852  0.75102137  0.74862649
   0.25653481  0.24418751  0.00565177
   0.25429870  0.24738291  0.50308052
   0.25641805  0.75387877  1.00273474
   0.23821125  0.75216086  0.49806365
   0.75682526  0.24531720  1.00305399
   0.74955009  0.25274929  0.49888219
   0.74732049  0.75275460  0.00496289
   0.75000641  0.75663193  0.50563175
   0.25555134 -0.00089059  0.24359954
   0.25822021  0.99847306  0.75406407
   0.24291270  0.49933537  0.25863226
   0.23410538  0.49666724  0.75123121
   0.75627214  1.00191615  0.25419886
   0.73657213  0.00101192  0.74787767
   0.76233475  0.50083750  0.24722419
   0.75626035  0.50519014  0.73940446
   0.00315393  0.25277006  0.24990277
   1.00008852  0.25123502  0.74559896
   1.00121367  0.75308106  0.26392735
   0.99705968  0.75152792  0.76034604
   0.50631499  0.25000061  0.24911101
   0.50074173  0.25241411  0.75438935
   0.50136926  0.75122854  0.25507885
   0.49801834  0.76016827  0.75363254
Direct configuration=    10
   1.00210690  0.00456525  0.00454458
  -0.00319221  0.00099575  0.50341415
   0.49963967  0.50128753  0.99940872
   0.50608835  0.49915082  0.50122251
   0.50671820  0.99580403  0.00072502
   0.49367906 -0.00029236  0.50019048
  -0.00158048  0.49328730  1.00447348
  -0.00167654  0.50512847  0.50364461
   0.25069237  0.24983704  0.24928381
   0.25401180  0.24809950  0.74668256
   0.24539713  0.74942999  0.24140308
   0.24885241  0.75123148  0.74801418
   0.75049765  0.25020967  0.24949553
   0.74682435  0.25088239  0.74889451
   0.75079695  0.75008649  0.25609605
   0.75060889  0.75165523  0.74918609
   0.25640581  0.24366753  0.00667724
   0.25562225  0.24751247  0.50414162
   0.25698550  0.75376942  1.00383901
   0.23790246  0.75302704  0.49927047
   0.75830044  0.24597549  1.00320629
   0.74993971  0.25243100  0.49991223
   0.74796413  0.75328127  0.00585911
   0.74950084  0.75869150  0.50678354
   0.25539680 -0.00260336  0.24303409
   0.25851896  0.99887822  0.75438299
   0.24311394  0.50056001  0.25905753
   0.23250481  0.49773220  0.75263041
   0.75772375  1.00294705  0.25576001
   0.73517718  0.00022664  0.74699923
   0.76292071  0.50404479  0.24701932
   0.75668102  0.50515518  0.73881186
   0.00260499  0.25244860  0.25183172
   0.99879680  0.25016049  0.74707993
   1.00131879  0.75476120  0.26439339
   0.99765882  0.75190511  0.76204731
   0.50733746  0.25051107  0.24904666
   0.50220141  0.25385306  0.75447130
   0.50065529  0.75220621  0.25536256
   0.49779779  0.76102975  0.75509501
Direct configuration=    11
   1.00224057  0.00506016  0.00473532
  -0.00406161  0.00085054  0.50421339
   0.50019051  0.50102095  0.99900166
   0.50704870  0.49877987  0.50134253
   0.50772535  0.99531574  0.00102095
   0.49237106 -0.00033341  0.49989368
  -0.00181367  0.49231529  1.00553815
  -0.00175456  0.50562576  0.50422819
   0.25017723  0.25063191  0.24868300
   0.25414046  0.24843239  0.74631797
   0.24506376  0.74861349  0.24096015
   0.24897946  0.75119231  0.74768307
   0.75116244  0.24962463  0.24991391
   0.74672958  0.25126187  0.74796006
   0.75080475  0.75042130  0.25618371
   0.75028245  0.75235679  0.75003778
   0.25602103  0.24285445  0.00825414
   0.25619112  0.24672661  0.50459829
   0.25755558  0.75314851  1.00489196
   0.23857016  0.75398577  0.50218963
   0.75931903  0.24669274  1.00223258
   0.75083554  0.25287192  0.50115753
   0.74906004  0.75479873  0.00625974
   0.74912005  0.76070996  0.50749146
   0.25547060 -0.00364484  0.24407860
   0.25797158  0.99950967  0.75517846
   0.24317538  0.50248336  0.25907961
   0.23073135  0.49911099  0.75385801
   0.75867381  1.00363366  0.25759903
   0.73414232 -0.00045024  0.74666823
   0.76382475  0.50770669  0.24641191
   0.75620147  0.50432765  0.73869425
   0.00147188  0.25154597  0.25360567
   0.99732882  0.24893461  0.74831547
   1.00129952  0.75706579  0.26462255
   0.99821490  0.75257963  0.76426281
   0.50709872  0.25087942  0.24920937
   0.50357159  0.25551570  0.75466965
   0.49916655  0.75335195  0.25531404
   0.49740818  0.76145947  0.75589410
Direct configuration=    12
   1.00229045  0.00570251  0.00518865
  -0.00469425  0.00088025  0.50484169
   0.50070425  0.50091783  0.99869063
   0.50789111  0.49839580  0.50137004
   0.50863429  0.99478476  0.00148767
   0.49153172 -0.00050359  0.49969523
  -0.00207074  0.49107852  1.00644096
  -0.00188394  0.50600494  0.50480217
   0.25007185  0.25102311  0.24820646
   0.25399235  0.24892985  0.74612476
   0.24503509  0.74834599  0.24086163
   0.24977238  0.75092496  0.74716413
   0.75163474  0.24907797  0.24970851
   0.74713763  0.25167164  0.74707021
   0.75063164  0.75102130  0.25612038
   0.75022796  0.75262191  0.75073424
   0.25529193  0.24264824  0.00882093
   0.25747418  0.24649056  0.50486528
   0.25857661  0.75193064  1.00669438
   0.23976570  0.75514702  0.50536036
   0.75953085  0.24723697  1.00116054
   0.75086172  0.25282405  0.50274650
   0.74950418  0.75665748  0.00610128
   0.74906760  0.76278116  0.50723208
   0.25586314 -0.00442639  0.24579487
   0.25766494  1.00027392  0.75611533
   0.24207811  0.50347208  0.25877293
   0.22846934  0.50041604  0.75627375
   0.75945837  1.00387865  0.25933558
   0.73297739 -0.00057446  0.74639788
   0.76473775  0.51091911  0.24647719
   0.75600124  0.50353567  0.73869556
   0.00118019  0.25089599  0.25564614
   0.99558517  0.24808585  0.74994204
   1.00094789  0.75940766  0.26527713
   0.99885885  0.75366253  0.76646926
   0.50574451  0.25076597  0.24910783
   0.50517558  0.25744100  0.75458015
   0.49815450  0.75486879  0.25532252
   0.49675045  0.76167035  0.75612432
Direct configuration=    13
   1.00230815  0.00596355  0.00532815
  -0.00546128  0.00087389  0.50544499
   0.50121702  0.50090478  0.99846667
   0.50879671  0.49803625  0.50156086
   0.50934232  0.99409225  0.00185303
   0.49084466 -0.00066608  0.49978325
  -0.00231525  0.49006944  1.00746141
  -0.00202351  0.50644344  0.50573467
   0.24991712  0.25148584  0.24799914
   0.25347718  0.24916236  0.74581687
   0.24499249  0.74792936  0.24115646
   0.25049547  0.75099937  0.74689719
   0.75202138  0.24837558  0.24950914
   0.74822013  0.25190658  0.74600210
   0.75047513  0.75154334  0.25605820
   0.75024973  0.75313051  0.75123379
   0.25425417  0.24227921  0.00924743
   0.25826489  0.24616919  0.50507544
   0.25961799  0.75026169  1.00776791
   0.24104554  0.75611324  0.50861911
   0.75951727  0.24776224  0.99961137
   0.75116974  0.25232546  0.50311000
   0.74969168  0.75909501  0.00620796
   0.74821623  0.76519007  0.50665950
   0.25525636 -0.00456381  0.24855665
   0.25758948  1.00123019  0.75733447
   0.24092309  0.50376631  0.25914430
   0.22714981  0.50129385  0.75851719
   0.75964414  1.00486040  0.26116494
   0.73214895 -0.00137224  0.74681054
   0.76525712  0.51261968  0.24649892
   0.75629420  0.50243403  0.73939947
   0.00145047  0.25094361  0.25806175
   0.99414123  0.24703504  0.75155200
   1.00010349  0.76087770  0.26569183
   0.99926112  0.75459614  0.76943654
   0.50489003  0.25054470  0.24923974
   0.50534994  0.25932717  0.75483014
   0.49745816  0.75678465  0.25574547
   0.49646177  0.76134779  0.75632975
Direct configuration=    14
   1.00242863  0.00629352  0.00561108
  -0.00629554  0.00094289  0.50589133
   0.50160003  0.50109836  0.99823320
   0.50969981  0.49817117  0.50148878
   0.50984466  0.99333705  0.00241645
   0.49029712 -0.00068435  0.49967740
  -0.00259826  0.48911630  1.00837117
  -0.00197830  0.50681485  0.50676527
   0.25008867  0.25175476  0.24757975
   0.25316800  0.24966584  0.74569190
   0.24465156  0.74770769  0.24126986
   0.25117173  0.75141850  0.74636102
   0.75262816  0.24706344  0.24950333
   0.74898032  0.25159308  0.74519392
   0.75017596  0.75248281  0.25549197
   0.75047955  0.75385749  0.75191402
   0.25243558  0.24295810  0.00982304
   0.25886434  0.24644358  0.50548937
   0.26040773  0.74842583  1.00910162
   0.24267347  0.75641477  0.51266243
   0.75952996  0.24778857  0.99854905
   0.75193160  0.25222838  0.50333980
   0.75001954  0.76139266  0.00574563
   0.74766467  0.76700227  0.50684751
   0.25465167 -0.00322715  0.25201121
   0.25815175  1.00303923  0.75836348
   0.24018158  0.50397261  0.25922280
   0.22643237  0.50197357  0.76062771
   0.75940730  1.00527883  0.26229517
   0.73137778 -0.00108430  0.74836677
   0.76602344  0.51224552  0.24660656
   0.75648233  0.50161497  0.74050961
   0.00154288  0.25090090  0.25979358
   0.99329555  0.24597336  0.75430884
   0.99940316  0.76197534  0.26570021
   0.99910112  0.75566335  0.77126385
   0.50382077  0.25050104  0.25004762
   0.50464915  0.26130408  0.75542368
   0.49755349  0.75890370  0.25582487
   0.49658546  0.76106295  0.75651123
Direct configuration=    15
   1.00268375  0.00699636  0.00560189
  -0.00696863  0.00116488  0.50641844
   0.50197189  0.50118018  0.99837920
   0.51050223  0.49839048  0.50119904
   0.51022924  0.99275473  0.00298645
   0.48996995 -0.00071132  0.49922353
  -0.00316887  0.48796383  1.00901398
  -0.00202301  0.50753082  0.50797873
   0.25001573  0.25158642  0.24721764
   0.25234482  0.25050999  0.74513175
   0.24443447  0.74748251  0.24165123
   0.25182712  0.75170034  0.74615855
   0.75348928  0.24600491  0.24954827
   0.75041071  0.25084466  0.74477639
   0.74973326  0.75329024  0.25511338
   0.75090233  0.75446535  0.75273902
   0.25105175  0.24411339  0.01158986
   0.25854451  0.24692099  0.50593869
   0.26083221  0.74715037  1.01009150
   0.24415817  0.75565332  0.51635245
   0.75963432  0.24814677  0.99826625
   0.75167283  0.25271121  0.50292330
   0.74941549  0.76301250  0.00483282
   0.74648316  0.76844179  0.50663213
   0.25385198 -0.00133728  0.25500724
   0.25912911  1.00605499  0.75921640
   0.23879780  0.50397116  0.25858097
   0.22600911  0.50187712  0.76255551
   0.75820196  1.00592809  0.26292158
   0.73123805 -0.00040903  0.75058490
   0.76641055  0.51099057  0.24646840
   0.75688202  0.50165033  0.74194651
   0.00221203  0.25168160  0.26098841
   0.99342495  0.24433391  0.75647400
   0.99871506  0.76295202  0.26592241
   0.99901487  0.75627041  0.77283487
   0.50309141  0.25147486  0.25018409
   0.50321937  0.26275801  0.75610795
   0.49790247  0.76057972  0.25623507
   0.49724811  0.75988766  0.75658189
Direct configuration=    16
   1.00303887  0.00769299  0.00552557
  -0.00771567  0.00129632  0.50700718
   0.50247205  0.50138110  0.99830084
   0.51112607  0.49865192  0.50090345
   0.51047203  0.99229389  0.00345129
   0.48944047 -0.00070031  0.49867976
  -0.00411985  0.48671143  1.00956492
  -0.00223951  0.50820911  0.50912185
   0.24975995  0.25116055  0.24670377
   0.25171392  0.25141684  0.74414798
   0.24433161  0.74766193  0.24214462
   0.25252925  0.75116377  0.74622190
   0.75443091  0.24467548  0.24967221
   0.75125874  0.25033344  0.74449347
   0.74942412  0.75436928  0.25505174
   0.75139642  0.75506383  0.75419775
   0.24956050  0.24611778  0.01278140
   0.25884850  0.24838512  0.50647318
   0.26072954  0.74562774  1.01075127
   0.24503244  0.75519681  0.51885615
   0.75941495  0.24889647  0.99816043
   0.75223588  0.25279834  0.50097690
   0.74847540  0.76475259  0.00460002
   0.74522991  0.76937729  0.50636715
   0.25326468  0.00105815  0.25794500
   0.26017543  1.00904280  0.75896328
   0.23716442  0.50356519  0.25808156
   0.22639313  0.50232191  0.76460548
   0.75649200  1.00602370  0.26336198
   0.73056040  0.00021685  0.75281270
   0.76648848  0.50880069  0.24651103
   0.75748603  0.50199371  0.74305736
   0.00295019  0.25329019  0.26209413
   0.99398328  0.24294076  0.75853590
   0.99955631  0.76405046  0.26614057
   0.99874420  0.75768589  0.77408080
   0.50315691  0.25275711  0.24991283
   0.50108369  0.26383062  0.75657949
   0.49848617  0.76201628  0.25666337
   0.49851680  0.75807640  0.75625275
Direct configuration=    17
   1.00312100  0.00835356  0.00552462
  -0.00857648  0.00169066  0.50772447
   0.50331557  0.50149373  0.99812956
   0.51162349  0.49920158  0.50056455
   0.51017009  0.99211805  0.00409169
   0.48898004 -0.00085545  0.49844103
  -0.00490263  0.48511189  1.00980960
  -0.00231882  0.50884038  0.51046329
   0.24971283  0.25063322  0.24624994
   0.25063172  0.25246902  0.74296052
   0.24435382  0.74809830  0.24240856
   0.25353818  0.75092366  0.74639033
   0.75450364  0.24337108  0.24992643
   0.75193063  0.24991719  0.74431646
   0.74912082  0.75578705  0.25497094
   0.75253395  0.75607877  0.75609242
   0.24813769  0.24787039  0.01294513
   0.25820613  0.25055661  0.50704155
   0.26075873  0.74422533  1.01143143
   0.24565440  0.75529936  0.52002900
   0.75885760  0.24961831  0.99784374
   0.75342226  0.25299345  0.49990741
   0.74792694  0.76671706  0.00589543
   0.74456224  0.77021174  0.50656104
   0.25257296  0.00389499  0.26060698
   0.26117849  1.01083453  0.75842258
   0.23561282  0.50363986  0.25737893
   0.22776924  0.50322812  0.76685669
   0.75488736  1.00589257  0.26321031
   0.72959283  0.00082241  0.75541460
   0.76690146  0.50711162  0.24656381
   0.75842235  0.50258807  0.74529505
   0.00313156  0.25503516  0.26253828
   0.99565048  0.24191855  0.76016625
   1.00047547  0.76485522  0.26725049
   0.99838485  0.75864594  0.77472243
   0.50302272  0.25425829  0.24898754
   0.49911872  0.26464201  0.75670476
   0.49930025  0.76346789  0.25765169
   0.49984618  0.75531601  0.75613478
Direct configuration=    18
   1.00298603  0.00885757  0.00548311
  -0.00921277  0.00227690  0.50857253
   0.50418400  0.50150334  0.99798715
   0.51210516  0.49961669  0.50024115
   0.50974007  0.99211519  0.00477267
   0.48862260 -0.00094021  0.49809131
  -0.00527114  0.48333866  1.00979612
  -0.00267058  0.50966874  0.51146948
   0.25001676  0.25043414  0.24605111
   0.25000511  0.25353133  0.74213755
   0.24515874  0.74865984  0.24303658
   0.25508441  0.75092266  0.74603498
   0.75518660  0.24234920  0.24964987
   0.75258914  0.24935213  0.74447100
   0.74934460  0.75723715  0.25494635
   0.75363626  0.75725385  0.75807711
   0.24606363  0.25064453  0.01268414
   0.25731955  0.25234634  0.50764715
   0.26140389  0.74316139  1.01251899
   0.24598728  0.75503305  0.52025297
   0.75791951  0.25055361  0.99817478
   0.75398771  0.25306431  0.49886923
   0.74755268  0.76850269  0.00751703
   0.74343476  0.77044623  0.50668134
   0.25237103  0.00692893  0.26295225
   0.26208822  1.01229101  0.75849803
   0.23460189  0.50388691  0.25714262
   0.22909887  0.50489835  0.76905642
   0.75286731  1.00618957  0.26352310
   0.72952927  0.00230757  0.75771372
   0.76734937  0.50597720  0.24676174
   0.75917529  0.50351064  0.74768457
   0.00350541  0.25747304  0.26207147
   0.99730046  0.24080938  0.76086088
   1.00034646  0.76446358  0.26914295
   0.99816664  0.76009568  0.77542630
   0.50307697  0.25581165  0.24770143
   0.49729251  0.26391373  0.75727731
   0.50043193  0.76493449  0.25807501
   0.50101307  0.75324561  0.75663830
Direct configuration=    19
   1.00296980  0.00924932  0.00502422
  -0.00980530  0.00298022  0.50942436
   0.50515274  0.50130433  0.99799172
   0.51235702  0.50002505  0.49993335
   0.50924097  0.99207750  0.00565337
   0.48844443 -0.00131597  0.49760260
  -0.00560568  0.48191865  1.00934465
  -0.00292276  0.51040415  0.51277295
   0.25034935  0.25046383  0.24624984
   0.24962042  0.25444526  0.74184646
   0.24629281  0.74951953  0.24376230
   0.25706716  0.75060257  0.74600893
   0.75600715  0.24145929  0.24940510
   0.75318713  0.24914754  0.74496594
   0.74949031  0.75826901  0.25496996
   0.75442351  0.75878278  0.75984888
   0.24413843  0.25360722  0.01328048
   0.25579604  0.25429336  0.50777197
   0.26244005  0.74257006  1.01345120
   0.24723960  0.75435916  0.51970343
   0.75646726  0.25189339  0.99959907
   0.75455204  0.25336783  0.49806797
   0.74629825  0.76977871  0.00981775
   0.74254747  0.76868584  0.50735477
   0.25149862  0.00879027  0.26558209
   0.26292592  1.01183283  0.75927904
   0.23390175  0.50428751  0.25668806
   0.23026336  0.50619020  0.77151507
   0.75173026  1.00594574  0.26355024
   0.72926875  0.00484138  0.75969479
   0.76753199  0.50587135  0.24698195
   0.75989295  0.50548591  0.75060801
   0.00304951  0.26029060  0.26163045
   0.99924918  0.23956686  0.76139603
   1.00040806  0.76414952  0.27054584
   0.99815961  0.76168560  0.77611534
   0.50347397  0.25761429  0.24644199
   0.49535862  0.26344647  0.75771643
   0.50230133  0.76629465  0.25863953
   0.50261164  0.75140016  0.75709890
Direct configuration=    20
   1.00288383  0.00977494  0.00454347
  -0.01030354  0.00374458  0.51029765
   0.50647525  0.50131481  0.99808680
   0.51260757  0.50052244  0.49984821
   0.50832091  0.99206511  0.00632465
   0.48827902 -0.00158979  0.49697805
  -0.00583054  0.48093604  1.00902282
  -0.00321263  0.51129863  0.51395960
   0.25058429  0.25060983  0.24650291